/*--------------------------------*- C++ -*----------------------------------*\
  =========                 |
  \\      /  F ield         | OpenFOAM: The Open Source CFD Toolbox
   \\    /   O peration     | Website:  https://openfoam.org
    \\  /    A nd           | Version:  13
     \\/     M anipulation  |
\*---------------------------------------------------------------------------*/
FoamFile
{
    format      ascii;
    class       volScalarField;
    location    "753";
    object      epsilon;
}
// * * * * * * * * * * * * * * * * * * * * * * * * * * * * * * * * * * * * * //

dimensions      [0 2 -3 0 0 0 0];

internalField   nonuniform List<scalar> 
78000
(
13892.5
5765.15
5615.53
6448.6
7012.52
9008.99
9666.89
11330.9
11718.8
12693.8
12873.6
13239.8
13368.4
13412.8
13357.6
13207.9
12974.8
12683.6
12336.6
11966.3
11548.2
11109
10633.4
10131.1
9605.92
9051.72
8482.02
7890.8
7288.23
6677.01
6065.14
5462.39
4875.16
4318.8
3791.98
3369.44
3035.43
2742.88
2462.17
2235.43
1994.45
1825.95
1602.73
1483.06
1334.2
1627.17
1964.32
4456.96
5017.69
8540.55
9025.35
8455.86
7760.67
7829.28
7653.06
8874.59
8984.83
9839.35
9788.69
10126.8
9974.68
9934.68
9769.99
9564.88
9312.42
9012.97
8675.68
8322.08
7950.14
7578
7189.2
6798.25
6395.66
5986.71
5573.69
5153.77
4735.18
4315.97
3902.84
3498.77
3109.19
2740.04
2394.9
2080.59
1795.71
1575
1406.17
1261.23
1126.38
1018.24
906.707
828.673
727.295
673.98
606.111
740.153
884.807
1948.75
2460.15
4178.23
2608.82
4699.72
6452.09
8712.43
9161.54
10588.8
10596.3
11173.8
10934.1
10968.5
10641.3
10368.6
10020.1
9656.76
9267.74
8853.86
8421.98
7994.46
7564.87
7146.18
6722.44
6303.59
5880.87
5457.15
5033.67
4607.76
4185.78
3766.63
3356.2
2958.01
2577.73
2221.6
1894.08
1601.41
1343.67
1149.37
1005.39
884.625
777.126
691.887
609.22
550.793
480.55
442.813
397.609
482.429
573.318
1238.32
1596.97
3615.3
820.869
2093.42
3533.89
5994.68
7382.81
9450.79
9923.45
10701.1
10594.5
10622.9
10332.7
10026
9654.22
9265.87
8855.86
8428.33
7990.01
7563.99
7141.76
6734.52
6326.89
5926.66
5525.59
5125.13
4725.77
4324.58
3926.39
3530.01
3140.21
2760.21
2395.24
2051.49
1733.85
1448.91
1198.03
1009.28
869.99
753.892
652.074
571.691
496.13
442.324
381.51
347.359
310.216
371.251
440.993
957.966
1200.02
3681.9
241.964
915.604
1619.22
3083.91
4433.33
6611.96
7717.52
8937.19
9238.85
9516.44
9412.22
9222.05
8939.43
8610.06
8248.07
7861.49
7460.63
7070.31
6682.42
6309.07
5935.86
5570.01
5203.94
4838.44
4473.65
4106.38
3740.46
3374.3
3011.72
2655.34
2309.78
1980.91
1673.78
1395.37
1148.05
960.741
821.71
705.684
604.036
523.838
449.2
395.931
337.556
303.842
268.973
317.142
375.706
821.028
1022.87
3896.74
91.9391
415.755
723.252
1427.83
2213.04
3705.46
4935.84
6440.79
7232.47
7884.93
8087.21
8119.5
8014.57
7805.8
7541.55
7233.23
6897.15
6562.69
6223.76
5895.08
5564.16
5238.6
4911.86
4584.53
4256.82
3925.36
3593.34
3258.78
2924.69
2593.03
2267.7
1954.18
1657.42
1384.77
1139.46
951.714
811.005
693.023
589.231
507.206
430.995
376.584
317.82
283.457
248.179
288.535
339.889
740.935
945.499
4178.28
48.5511
206.794
346.391
666.033
1030.55
1811.84
2650.25
3933.21
4952.88
5912.59
6468.17
6794.04
6908.26
6879.89
6756.04
6557.14
6309
6046.97
5767.95
5491.84
5208.51
4926.62
4641.29
4353.25
4063.15
3767.6
3469.48
3166.46
2860.86
2554.03
2249.13
1951.12
1664.64
1397.38
1153.27
964.102
820.664
699.56
592.315
507.267
428.076
371.506
310.823
275.196
237.959
272.948
319.126
687.524
918.459
4496.3
32.2019
116.31
186.525
341.188
500.499
857.988
1286.78
2067.09
2911.3
3899.99
4691.61
5288.99
5654.06
5839.59
5880.1
5826.03
5687.38
5513.77
5305.68
5089.66
4859.18
4624.33
4382.46
4134.75
3882.73
3623.12
3358.79
3087.16
2810.06
2528.23
2244.08
1961.87
1686.17
1424.6
1181.54
990.451
843.621
718.58
606.939
517.969
434.851
375.388
311.768
274.389
234.107
264.934
307.125
648.693
919.864
4841.11
24.6869
73.2941
112.732
196.642
270.286
434.051
624.701
1009.05
1506.68
2231.73
3000.75
3728.75
4297.36
4693.1
4922.57
5025.83
5015.99
4949.91
4824.23
4676.52
4505.06
4321.15
4125.65
3919.95
3707.03
3483.88
3253.66
3013.69
2765.42
2509.11
2246.37
1980.97
1716.81
1461.54
1219.85
1026.8
876.34
746.906
630.265
536.706
448.869
385.827
318.417
278.827
234.644
261.838
300.818
619.092
941.074
5207.94
20.756
50.7576
75.0515
125.198
163.621
245.944
331.298
505.906
746.045
1146.48
1681.62
2322.3
2952.43
3491.47
3890.87
4157.9
4292.2
4337.76
4310.7
4240.22
4135.17
4006.9
3861.59
3700.33
3528.41
3342.93
3147.78
2940.25
2721.64
2491.8
2251.63
2004.28
1752.96
1505.12
1265.61
1070.94
916.864
782.796
660.724
562.036
468.842
401.651
329.763
287.45
238.582
262.228
298.527
596.325
977.534
5594.01
18.5272
37.9213
53.9869
86.01
108.925
154.883
197.667
279.805
389.495
578.188
864.399
1281.82
1796.71
2343.63
2837.73
3239.21
3512.13
3679.31
3754.38
3768.03
3739.18
3671.79
3581.66
3468.05
3339.78
3193.86
3035.45
2861.74
2674.14
2472.21
2256.18
2028.57
1791.83
1553.03
1316.97
1121.39
963.994
825.271
697.514
593.272
494.175
422.284
345.265
299.709
245.464
265.386
299.277
579.472
1027.09
5997.32
17.1983
30.1176
41.2938
62.7127
77.9016
105.875
130.442
172.998
226.251
313.499
447.57
663.643
981.552
1399.27
1864.65
2323.12
2697.94
2975.55
3153.04
3258.78
3306.65
3305.93
3277.81
3215.54
3134.51
3030.64
2911.25
2773.33
2618.65
2446.53
2256.64
2050.94
1830.95
1603.27
1372.39
1177
1016.86
873.697
740.182
630.078
524.617
447.505
364.733
315.383
255.064
270.906
302.582
568.611
1088.73
6416.07
16.3799
25.1381
33.1828
47.9995
58.7909
76.9985
92.7509
117.261
146
189.603
252.724
354.388
514.436
761.613
1095.11
1501.85
1903.06
2251.68
2515.59
2708.64
2835.45
2907.81
2940.79
2935.17
2906.17
2847.37
2769.96
2670.25
2550.86
2410.97
2249.94
2068.49
1867.9
1653.88
1430.4
1236.68
1074.71
927.583
788.445
672.305
560.109
477.289
388.166
334.44
267.349
278.613
308.165
564.141
1161.9
6848.32
15.8641
21.8493
27.7622
38.2708
46.2748
58.743
69.6406
85.1036
102.299
126.541
158.806
208.421
283.426
407.258
595.161
874.581
1210.67
1560.75
1870.52
2130.21
2328.59
2472.05
2569.38
2623.94
2647
2638.29
2606.38
2547.76
2466.45
2361.62
2232.27
2078.17
1900.09
1702.77
1489.43
1299.34
1136.79
986.461
842.074
719.888
600.704
511.731
415.69
356.977
282.405
288.466
315.934
565.185
1247.44
7291.64
15.5329
19.6261
24.0171
31.6076
37.698
46.5698
54.4927
64.9561
76.1442
91.0226
109.232
135.841
172.679
232.651
324.458
479.241
699.272
977.501
1270.6
1554.88
1801.84
2004.8
2163
2277.44
2355.92
2399.51
2413.75
2401.02
2361.01
2294.4
2199.89
2076.71
1924.69
1747.62
1547.71
1363.69
1202.2
1049.79
900.822
772.781
646.502
550.999
447.513
383.181
300.421
300.527
325.935
572.059
1346.11
7742.65
15.316
18.1022
21.3681
26.9191
31.6209
38.1166
44.0664
51.5215
59.2736
69.1542
80.4086
96.1364
115.974
146.983
191.251
268.023
386.324
562.013
782.113
1034.67
1288.77
1524.94
1730.2
1898.02
2030.37
2126.9
2191.27
2225.86
2228.18
2205.13
2148.91
2061.13
1938.48
1785.76
1603.19
1428.2
1269.87
1116.89
964.348
830.9
697.609
595.292
483.901
413.307
321.68
314.917
338.335
584.826
1458.42
8196.86
15.1712
17.0511
19.4662
23.5526
27.2081
32.0625
36.6263
42.1383
47.7624
54.7184
62.2123
72.3115
84.0399
101.605
124.583
162.983
221.347
314.827
447.831
627.056
839.607
1067.96
1292.33
1496.7
1674.42
1820.42
1934.74
2018.17
2068.31
2087.9
2074.08
2026.15
1937.87
1814.07
1653.4
1490.99
1338.41
1186.85
1032.15
894.059
754.087
644.813
525.152
447.665
346.519
331.903
353.346
603.601
1584.53
8650.77
15.0727
16.3261
18.0903
21.1012
23.9473
27.6248
31.1726
35.355
39.573
44.6796
49.966
56.8808
64.4144
75.2188
88.3345
109.025
138.565
185.346
254.923
359.146
502.086
681.535
885.902
1097.13
1301.13
1485.75
1645.11
1776.13
1875.03
1941.85
1972.78
1965.7
1920.11
1828.96
1695.43
1549.8
1406.08
1258.43
1103.49
961.917
815.91
699.726
571.571
486.599
375.338
351.83
371.258
628.478
1724.18
9100.06
15.0044
15.8284
17.0942
19.3015
21.5094
24.3165
27.0949
30.3241
33.5627
37.4239
41.3186
46.2834
51.4604
58.5777
66.7366
78.8734
95.0727
119.336
154.55
208.468
289.002
403.371
554.816
736.309
935.997
1137.83
1329.36
1501.52
1646.88
1761.85
1841.05
1880.45
1875.48
1826.4
1725.87
1601.8
1470.65
1330.02
1177.32
1033.9
882.907
760.118
623.443
530.473
408.587
375.12
392.428
659.49
1876.56
9539.34
14.9566
15.4893
16.3767
17.9769
19.6749
21.8221
24.0024
26.5223
29.0483
32.0275
34.9894
38.68
42.4272
47.3768
52.8305
60.5005
70.1827
83.7661
102.515
130.093
171.723
234.26
326.515
453.532
615.677
803.651
1003.97
1202.47
1386.22
1546.57
1674.57
1763.97
1806.47
1799.62
1740.45
1643.63
1529.36
1399.49
1252.17
1109.12
954.687
825.942
680.996
579.643
446.755
402.268
417.28
696.606
2040.1
9962.01
14.9228
15.2605
15.8651
17.0049
18.2921
19.9295
21.6354
23.6108
25.5997
27.9285
30.2319
33.0444
35.8629
39.4518
43.3093
48.4669
54.6991
62.9267
73.716
88.6875
110.412
142.725
192.22
266.481
374.166
518.957
696.951
896.702
1101.98
1298.59
1471.98
1611.94
1706.31
1747.68
1730.7
1671.23
1578.69
1464.07
1326.04
1186.26
1030.56
896.953
744.349
634.429
490.354
433.834
446.295
739.709
2212.34
10360.1
14.8988
15.1075
15.5058
16.2972
17.2534
18.4909
19.8153
21.3624
22.9343
24.7677
26.5849
28.7656
30.944
33.63
36.4769
40.123
44.3835
49.7219
56.4067
65.1988
77.284
94.4774
120.202
159.544
220.376
312.245
442.661
612.936
812.877
1027.24
1235.84
1422.67
1569.86
1665.95
1697.55
1674.58
1614.33
1520.16
1396.29
1263.49
1109.42
972.616
813.455
695.067
539.891
470.424
480.004
788.588
2389.86
10724.1
14.8818
15.0059
15.2581
15.7881
16.4796
17.4004
18.4158
19.6191
20.8593
22.3054
23.75
25.4596
27.1738
29.2317
31.3985
34.0789
37.1319
40.8007
45.207
50.7636
57.9908
67.8301
81.7278
102.491
134.341
185.085
264.301
383.957
548.093
751.753
975.493
1198.3
1394.79
1547.48
1635.11
1654.77
1628.02
1563.23
1459.49
1338.26
1189.62
1052
888.009
761.65
595.833
512.684
518.968
842.919
2568.23
11042.8
14.8697
14.9389
15.091
15.4271
15.9106
16.5801
17.3441
18.2682
19.2392
20.3762
21.5262
22.874
24.2369
25.8396
27.5242
29.5541
31.8209
34.4627
37.5159
41.2552
45.8611
51.9381
59.9745
71.57
88.4025
115.167
157.737
228.295
339.024
501.613
710.36
947.761
1182.43
1389
1536.14
1607.39
1615.88
1585.77
1511.42
1407.12
1268.82
1133.66
967.343
834.041
658.546
561.271
563.733
902.263
2742.05
11303.9
14.861
14.8945
14.9788
15.1774
15.4997
15.9706
16.5305
17.2266
17.9761
18.8622
19.7734
20.8362
21.9238
23.1847
24.512
26.083
27.8099
29.7825
31.984
34.6321
37.7298
41.737
46.7057
53.691
63.1078
77.6867
99.8835
137.577
200.584
307.296
470.102
690.166
940.752
1190.46
1396.4
1522.22
1578.94
1580.53
1544.29
1465.42
1343.88
1215.42
1050.27
911.77
728.219
616.832
614.754
966.086
2905.06
11494
14.8542
14.8642
14.9037
15.0094
15.2095
15.5253
15.9209
16.4309
16.9969
17.677
18.3912
19.2247
20.0904
21.0864
22.1391
23.3724
24.7117
26.2249
27.8617
29.8138
31.9914
34.7818
38.0327
42.5457
48.1885
56.7017
68.7147
88.7636
121.632
181.287
285.051
455.267
688.017
958.203
1214.17
1395.35
1501.81
1553.19
1547.45
1505.79
1410.77
1294.19
1134.91
993.882
804.748
679.882
672.473
1033.69
3050.4
11599
14.8479
14.8423
14.8535
14.9001
15.0092
15.2067
15.4721
15.8316
16.2457
16.7555
17.3051
17.9512
18.6341
19.4193
20.2543
21.2299
22.2797
23.4622
24.7077
26.1905
27.7769
29.8059
32.039
35.1247
38.7256
44.076
51.019
62.292
79.4779
110.766
166.992
273.994
453.898
708.783
993.533
1223.92
1380.82
1486.98
1528.57
1518.1
1462.17
1365.42
1218.45
1078.77
887.588
750.618
737.434
1104.15
3171
11604.3
14.8437
14.8252
14.8176
14.8298
14.8765
14.9839
15.1491
15.3884
15.678
16.0471
16.4585
16.9495
17.4796
18.0932
18.7515
19.5239
20.3503
21.2846
22.2475
23.3981
24.5868
26.111
27.7098
29.9173
32.3419
35.9193
40.2212
47.0379
56.5417
73.3561
102.046
159.443
271.209
470.957
748.54
1010.49
1212.83
1372.77
1473.34
1506.08
1485.44
1422.82
1297.18
1163.94
975.531
828.842
809.933
1176.48
3260.12
11526.2
14.8406
14.8137
14.791
14.7812
14.7913
14.8335
14.9229
15.0681
15.2573
15.5112
15.8068
16.1689
16.5701
17.0417
17.5537
18.1616
18.8105
19.5515
20.3031
21.2077
22.1177
23.2898
24.4742
26.1097
27.8207
30.3305
33.1674
37.5761
43.2445
52.8661
67.9124
97.769
156.333
279.671
506.284
767.683
999.776
1208.85
1366.3
1462.19
1479.31
1453.41
1366.03
1245.57
1066.44
913.759
889.873
1249.64
3311.09
11323.1
14.8384
14.8056
14.7732
14.7467
14.7324
14.7381
14.7695
14.8425
14.953
15.1142
15.314
15.569
15.8614
16.2141
16.6035
17.0752
17.58
18.1656
18.7539
19.4694
20.1763
21.0914
21.9933
23.2363
24.4941
26.3211
28.298
31.3006
34.9554
40.8256
49.3865
65.4843
94.2565
164.187
300.506
521.673
754.179
996.4
1206.52
1364.97
1445.59
1452.46
1410.79
1317.52
1157.03
1003.71
976.555
1322.53
3319.11
10977.3
14.8366
14.7997
14.7612
14.7241
14.6927
14.6716
14.6711
14.6898
14.7392
14.8276
14.9497
15.1165
15.3177
15.5706
15.8567
16.2138
16.5995
17.0571
17.5154
18.0807
18.6344
19.3546
20.0558
21.0169
21.9739
23.3407
24.7883
26.9125
29.4378
33.222
38.6034
47.5202
62.4938
102.039
170.006
312.656
505.038
748.165
994.817
1210.15
1360.58
1428.55
1419.78
1368.62
1243.12
1095.76
1068.38
1393.94
3284.28
10479.3
14.8352
14.7952
14.7528
14.709
14.6669
14.6291
14.6022
14.5899
14.5967
14.6265
14.6881
14.7834
14.9094
15.0787
15.2778
15.5381
15.824
16.1742
16.5268
16.9696
17.4037
17.9713
18.524
19.2751
20.023
21.0659
22.1709
23.7202
25.5642
28.127
31.7752
36.9474
45.7074
67.4811
100.8
180.489
296.71
496.171
744.237
999.917
1211.47
1357.63
1402.68
1387.26
1312.91
1184.82
1162.34
1462.17
3204.27
9821.88
14.8342
14.7918
14.7466
14.6988
14.6501
14.602
14.5586
14.5235
14.4995
14.4947
14.5068
14.5449
14.6108
14.7109
14.8379
15.0161
15.2183
15.4775
15.7423
16.0834
16.4213
16.8662
17.3047
17.8944
18.4903
19.2973
20.1674
21.3281
22.7298
24.5522
27.1235
30.499
35.9171
47.7131
65.377
108.583
166.128
289.098
489.085
747.358
1003.22
1216.74
1344.15
1376.65
1348.63
1264.57
1253.07
1524.93
3085.53
9018.89
14.8333
14.7892
14.742
14.6917
14.6389
14.5848
14.5313
14.4817
14.4374
14.4051
14.3837
14.3844
14.3999
14.4433
14.5121
14.6212
14.7536
14.9355
15.1266
15.3821
15.6408
15.9853
16.3328
16.7953
17.2753
17.9063
18.6052
19.4965
20.5906
21.9482
23.8142
26.2309
29.7873
36.191
46.6348
69.0949
97.7604
161.166
280.022
488.258
748.936
1011.67
1215.21
1330.91
1346.3
1319.82
1329.29
1579
2937.12
8097.92
14.8327
14.7871
14.7385
14.6865
14.6313
14.5737
14.5144
14.4559
14.399
14.3485
14.3041
14.274
14.2558
14.2591
14.2788
14.3302
14.4056
14.522
14.6515
14.8347
15.0271
15.2882
15.561
15.9215
16.3091
16.8058
17.3733
18.0731
18.9412
19.9941
21.3894
23.2043
25.6995
29.4298
35.9066
47.4929
62.9128
94.8039
153.149
276.482
485.479
756.1
1014.83
1218.31
1314.42
1335.34
1377.65
1619.88
2768.27
7100.79
14.8322
14.7855
14.7359
14.6828
14.6261
14.5664
14.5039
14.4403
14.3758
14.314
14.2548
14.2037
14.1606
14.1318
14.1183
14.1259
14.1535
14.2144
14.293
14.4154
14.552
14.7438
14.9537
15.2314
15.5427
15.9353
16.397
16.9571
17.6529
18.4952
19.57
20.9714
22.804
25.3494
29.3263
35.9419
44.5639
60.6307
88.729
151.034
269.565
487.802
759.44
1023.83
1221.02
1313.54
1387.72
1636.44
2584.6
6080.98
14.8318
14.7843
14.7339
14.68
14.6225
14.5616
14.4973
14.4308
14.3623
14.2937
14.2256
14.1611
14.1013
14.0501
14.01
13.984
13.98
13.9948
14.031
14.1026
14.1926
14.3266
14.4831
14.6932
14.9399
15.2503
15.6248
16.0793
16.6411
17.3295
18.1793
19.2882
20.6827
22.5977
25.1974
29.2592
34.4707
42.7444
56.9559
88.2839
144.554
267.951
487.664
768.466
1036.11
1236.63
1358.56
1624.94
2389.36
5108.01
14.8314
14.7833
14.7323
14.6779
14.62
14.5584
14.4933
14.4253
14.3546
14.2823
14.209
14.1366
14.0663
14.0005
13.942
13.8925
13.859
13.8448
13.8503
13.8765
13.929
14.0152
14.1264
14.2813
14.4729
14.7174
15.0191
15.391
15.8473
16.4174
17.1036
18.0026
19.0927
20.6027
22.4665
25.1274
28.4513
33.2211
40.8475
56.6974
82.9499
145.279
263.181
492.117
781.401
1067.39
1276.65
1572.58
2167.48
4302.05
14.8312
14.7825
14.7311
14.6764
14.6182
14.5564
14.4909
14.4222
14.3504
14.2763
14.2003
14.1235
14.047
13.9724
13.902
13.8368
13.7827
13.7449
13.7242
13.7261
13.7443
13.79
13.8639
13.9741
14.1192
14.3104
14.5513
14.8566
15.2289
15.7049
16.2683
17.0117
17.8872
19.1031
20.5492
22.4251
24.6455
27.7197
32.2168
40.3434
53.4015
84.8847
139.595
265.488
497.37
816.86
1110.89
1440.38
1908
3670.65
14.831
14.7819
14.7302
14.6753
14.6169
14.5551
14.4896
14.4206
14.3485
14.2736
14.1963
14.1173
14.0375
13.9579
13.8804
13.8054
13.7381
13.6839
13.6442
13.6218
13.6225
13.6384
13.6786
13.753
13.8594
14.0074
14.1981
14.4486
14.754
15.1534
15.6226
16.2459
16.9687
17.9611
19.1399
20.5609
22.1406
24.2631
27.219
31.5913
38.7555
54.9163
79.9546
145.22
265.788
520.622
865.985
1219.9
1682.21
3100.8
14.8308
14.7815
14.7295
14.6745
14.6161
14.5543
14.4889
14.4201
14.348
14.2729
14.1951
14.1152
14.0338
13.9518
13.8704
13.7898
13.7145
13.6499
13.5975
13.5592
13.5391
13.5413
13.5581
13.6007
13.6762
13.7896
13.9397
14.1451
14.397
14.7335
15.1294
15.6569
16.2691
17.0914
18.0792
19.2176
20.4229
21.9792
24.0432
26.8286
31.0174
39.3483
51.8961
85.6113
141.258
284.6
560.57
937.707
1404.68
2491.59
14.8307
14.7811
14.7289
14.6739
14.6156
14.554
14.4888
14.4203
14.3484
14.2734
14.1956
14.1155
14.0336
13.9505
13.8673
13.7838
13.7042
13.6335
13.5732
13.5251
13.4913
13.4774
13.4832
13.5055
13.5538
13.6401
13.7582
13.9269
14.1367
14.4214
14.7601
15.2103
15.7395
16.4337
17.2768
18.2249
19.2
20.412
21.9424
23.9435
26.7177
31.1077
38.1964
55.6059
81.623
157.597
300.493
615.28
1063.12
1868.01
14.8306
14.7809
14.7286
14.6735
14.6153
14.5539
14.4891
14.4209
14.3494
14.2748
14.1973
14.1173
14.0354
13.952
13.8681
13.7835
13.7018
13.6278
13.5633
13.509
13.4682
13.4404
13.4384
13.4494
13.4788
13.5433
13.6373
13.7769
13.9541
14.197
14.491
14.8794
15.3441
15.9426
16.6741
17.4859
18.3092
19.3045
20.5169
22.0563
24.0838
26.8089
31.084
40.2144
53.5267
93.1338
158.811
340.882
676.272
1313.77
14.8306
14.7807
14.7284
14.6733
14.6153
14.5541
14.4896
14.4219
14.3509
14.2767
14.1997
14.1202
14.0385
13.9553
13.8714
13.7863
13.7037
13.6285
13.5617
13.5042
13.4592
13.4252
13.4123
13.4184
13.4377
13.4855
13.5619
13.6793
13.832
14.0422
14.3016
14.6417
15.0553
15.5822
16.2282
16.9391
17.6561
18.5085
19.5256
20.7789
22.3641
24.3982
27.2552
32.2331
39.8838
60.7571
91.0083
188.546
369.519
798.14
14.8305
14.7806
14.7282
14.6732
14.6154
14.5545
14.4904
14.4231
14.3526
14.279
14.2026
14.1236
14.0424
13.9597
13.876
13.7911
13.7083
13.6325
13.5644
13.5059
13.4578
13.4226
13.4006
13.4034
13.4174
13.4538
13.5184
13.6196
13.7545
13.94
14.1731
14.4765
14.85
15.3232
15.9046
16.5404
17.1802
17.9341
18.8245
19.8982
21.2172
22.8776
25.0829
28.1284
33.0017
44.2002
59.6909
110.362
192.949
439.817
14.8305
14.7806
14.7282
14.6733
14.6156
14.555
14.4913
14.4245
14.3545
14.2816
14.2058
14.1274
14.0468
13.9647
13.8814
13.797
13.7143
13.6387
13.5699
13.5112
13.4606
13.4254
13.398
13.3985
13.4091
13.4385
13.4949
13.5849
13.7073
13.875
14.0884
14.3648
14.7076
15.1407
15.6738
16.254
16.8375
17.5216
18.3256
19.2832
20.4395
21.8695
23.6978
26.0554
29.4196
35.6138
44.827
71.0254
108.354
238.066
14.8305
14.7806
14.7283
14.6735
14.616
14.5556
14.4923
14.426
14.3566
14.2843
14.2092
14.1315
14.0516
13.9701
13.8873
13.8035
13.721
13.6459
13.5767
13.5183
13.4662
13.4311
13.4007
13.3983
13.4069
13.4327
13.4827
13.5651
13.6786
13.8336
14.0325
14.2894
14.6092
15.0126
15.5099
16.0494
16.5919
17.2259
17.9691
18.8486
19.9004
21.1834
22.7783
24.8109
27.5104
31.3625
37.4296
51.1585
70.0902
133.459
14.8306
14.7807
14.7285
14.6738
14.6165
14.5564
14.4935
14.4276
14.3588
14.2872
14.2127
14.1357
14.0565
13.9757
13.8936
13.8104
13.7282
13.6535
13.5842
13.5258
13.4732
13.437
13.4064
13.4
13.4072
13.4308
13.476
13.5526
13.6595
13.805
13.993
14.2353
14.5379
14.9191
15.3897
15.8993
16.4116
17.0096
17.7089
18.5336
19.5138
20.6981
22.1458
23.9658
26.2973
29.3332
33.7008
41.092
52.3586
82.676
14.8306
14.7808
14.7287
14.6742
14.6171
14.5573
14.4948
14.4294
14.3611
14.2901
14.2163
14.1401
14.0615
13.9815
13.9
13.8174
13.7357
13.6612
13.5921
13.5332
13.4808
13.4429
13.4125
13.4027
13.4085
13.43
13.4708
13.5425
13.6436
13.7815
13.9603
14.191
14.4796
14.8434
15.2932
15.7798
16.2691
16.8396
17.5059
18.2896
19.217
20.3297
21.676
23.3415
25.4272
28.0917
31.5974
36.5355
43.6799
59.0479
14.8306
14.781
14.729
14.6746
14.6178
14.5583
14.4961
14.4312
14.3635
14.293
14.2199
14.1444
14.0666
13.9873
13.9065
13.8244
13.7433
13.6689
13.6002
13.5407
13.4885
13.4487
13.4185
13.4051
13.4095
13.4288
13.4653
13.5322
13.6276
13.7582
13.9284
14.1484
14.4244
14.7727
15.2041
15.6712
16.1411
16.6887
17.3273
18.0767
18.9602
20.0142
21.2796
22.8258
24.7273
27.1279
30.1448
34.1105
39.4281
47.5969
14.8307
14.7811
14.7293
14.6751
14.6185
14.5593
14.4974
14.4329
14.3656
14.2957
14.2231
14.1482
14.071
13.9923
13.9121
13.8305
13.75
13.6755
13.6072
13.547
13.495
13.4536
13.4234
13.4067
13.4099
13.4268
13.4596
13.5222
13.6123
13.7364
13.899
14.1096
14.3746
14.7096
15.1252
15.5757
16.0291
16.5576
17.1735
17.895
18.743
19.7497
20.9506
22.405
24.1724
26.3712
29.0964
32.5398
37.0696
42.6662
14.8308
14.7813
14.7296
14.6756
14.6191
14.5601
14.4985
14.4343
14.3674
14.2979
14.2258
14.1513
14.0747
13.9964
13.9168
13.8354
13.7555
13.6809
13.613
13.5521
13.5003
13.4573
13.4272
13.4075
13.4098
13.4244
13.454
13.5127
13.5982
13.7166
13.8723
14.0747
14.3299
14.6532
15.0549
15.4909
15.9298
16.4415
17.0375
17.7348
18.5525
19.5196
20.6676
22.0477
23.7124
25.7528
28.2693
31.3674
35.3672
40.1374
14.8308
14.7815
14.7299
14.676
14.6197
14.561
14.4996
14.4357
14.3691
14.3
14.2283
14.1543
14.0782
14.0003
13.9212
13.8401
13.7606
13.686
13.6183
13.5568
13.5051
13.4606
13.4305
13.4078
13.4091
13.4213
13.448
13.5025
13.5832
13.6959
13.8446
14.0386
14.2838
14.595
14.9821
15.4028
15.8266
16.3206
16.8958
17.5678
18.3544
19.2813
20.3773
21.6856
23.2551
25.1529
27.4814
30.3031
33.8628
38.1636
14.8309
14.7817
14.7302
14.6765
14.6204
14.5618
14.5007
14.4371
14.3708
14.302
14.2308
14.1572
14.0815
14.004
13.9254
13.8446
13.7654
13.6908
13.6233
13.5612
13.5095
13.4636
13.4332
13.4078
13.408
13.4177
13.4415
13.4917
13.5675
13.6743
13.816
14.0014
14.2362
14.5348
14.9067
15.3113
15.7189
16.1941
16.7471
17.3923
18.1463
19.0318
20.0752
21.3123
22.7894
24.5564
26.7072
29.2924
32.4874
36.3632
14.8309
14.7819
14.7306
14.677
14.6211
14.5627
14.5018
14.4384
14.3725
14.304
14.2332
14.1599
14.0847
14.0075
13.9293
13.8488
13.7699
13.6953
13.6279
13.5654
13.5133
13.4664
13.4352
13.4082
13.4055
13.4136
13.4347
13.4806
13.5515
13.6523
13.7868
13.9634
14.1876
14.4732
14.8293
15.2169
15.6075
16.0627
16.5921
17.2089
17.9286
18.771
19.7606
20.9271
22.3129
23.9576
25.9406
28.3101
31.1963
34.669
14.831
14.7821
14.7309
14.6775
14.6217
14.5636
14.5029
14.4398
14.3741
14.306
14.2354
14.1625
14.0877
14.0109
13.933
13.8528
13.7742
13.6996
13.6321
13.5694
13.5167
13.4692
13.4364
13.4088
13.4024
13.4091
13.4275
13.4693
13.5352
13.63
13.7572
13.925
14.1384
14.4107
14.7506
15.1207
15.4936
15.9278
16.4325
17.0196
17.7034
18.5014
19.4361
20.5322
21.8277
23.3557
25.1813
27.3493
29.9633
33.0761
14.8311
14.7823
14.7313
14.678
14.6224
14.5644
14.504
14.4411
14.3757
14.3078
14.2376
14.165
14.0905
14.0141
13.9365
13.8566
13.7781
13.7037
13.6359
13.5731
13.5195
13.4719
13.437
13.4093
13.399
13.4043
13.4201
13.4577
13.5187
13.6076
13.7276
13.8865
14.0891
14.348
14.6715
15.0237
15.3784
15.7912
16.2705
16.8269
17.4738
18.2265
19.1054
20.1317
21.3383
22.754
24.4319
26.4116
28.7781
31.5744
14.8311
14.7825
14.7316
14.6785
14.6231
14.5653
14.5051
14.4424
14.3772
14.3096
14.2397
14.1675
14.0933
14.0171
13.9398
13.8602
13.7817
13.7075
13.6394
13.5766
13.5221
13.4743
13.4373
13.4095
13.3954
13.3992
13.4125
13.446
13.5022
13.5853
13.6981
13.8481
14.04
14.2856
14.5925
14.9267
15.2632
15.6543
16.1078
16.6332
17.2429
17.9501
18.7732
19.7306
20.8505
22.158
23.6969
25.5011
27.6407
30.153
14.8312
14.7827
14.7319
14.679
14.6237
14.5661
14.5061
14.4436
14.3787
14.3114
14.2417
14.1698
14.0958
14.02
13.9429
13.8636
13.7852
13.7111
13.6426
13.5799
13.5243
13.4764
13.4374
13.4095
13.3915
13.3939
13.4048
13.4341
13.4857
13.563
13.6688
13.8102
13.9914
14.2238
14.5144
14.8307
15.1489
15.5183
15.9461
16.4408
17.0134
17.6756
18.4437
19.3338
20.3698
21.5737
22.9819
24.6229
26.5547
28.8085
14.8313
14.7829
14.7323
14.6795
14.6244
14.5669
14.5071
14.4449
14.3802
14.3131
14.2437
14.172
14.0983
14.0228
13.9459
13.8668
13.7883
13.7145
13.6456
13.5829
13.5262
13.4783
13.4372
13.4092
13.3875
13.3884
13.3973
13.4224
13.4688
13.5407
13.6398
13.7726
13.9435
14.1629
14.4374
14.7361
15.0363
15.3845
15.787
16.2514
16.7876
17.4059
18.1205
18.9456
19.9014
21.0069
22.2927
23.7822
25.5244
27.5427
14.8313
14.7831
14.7326
14.68
14.625
14.5678
14.5081
14.4461
14.3816
14.3147
14.2455
14.1741
14.1007
14.0254
13.9487
13.8698
13.7913
13.7176
13.6483
13.5855
13.528
13.4797
13.437
13.4083
13.384
13.3824
13.3895
13.411
13.4522
13.5187
13.6111
13.7357
13.8964
14.1031
14.3619
14.6434
14.9262
15.2535
15.6313
16.0664
16.5673
17.1433
17.8066
18.5694
19.4493
20.4622
21.634
22.9836
24.5529
26.3585
14.8314
14.7832
14.7329
14.6804
14.6257
14.5685
14.5091
14.4472
14.3829
14.3163
14.2473
14.1762
14.1029
14.0279
13.9513
13.8726
13.7942
13.7204
13.6509
13.5879
13.5297
13.4808
13.437
13.4067
13.3813
13.3756
13.3812
13.4
13.436
13.4972
13.583
13.6995
13.8504
14.0447
14.2883
14.5531
14.8188
15.126
15.48
15.8867
16.3538
16.8893
17.5038
18.2079
19.0164
19.9428
21.0091
22.2305
23.6423
25.2575
14.8315
14.7834
14.7333
14.6809
14.6263
14.5693
14.51
14.4483
14.3843
14.3178
14.2491
14.1781
14.105
14.0302
13.9538
13.8752
13.7968
13.723
13.6533
13.5899
13.5313
13.4814
13.437
13.4045
13.3787
13.3687
13.3728
13.3889
13.42
13.4761
13.5555
13.6642
13.8054
13.9878
14.2166
14.4652
14.7146
15.0025
15.3336
15.7133
16.1482
16.6452
17.2137
17.8625
18.6046
19.4508
20.4201
21.5247
22.7935
24.239
14.8315
14.7836
14.7336
14.6814
14.6269
14.5701
14.5109
14.4494
14.3855
14.3193
14.2507
14.1799
14.1071
14.0324
13.9561
13.8777
13.7993
13.7254
13.6556
13.5917
13.5328
13.4817
13.4369
13.4021
13.3761
13.3618
13.3644
13.3778
13.4043
13.4554
13.5287
13.6297
13.7617
13.9325
14.147
14.3802
14.6138
14.8832
15.1925
15.5464
15.9508
16.4117
16.937
17.5343
18.2147
18.9873
19.8677
20.8666
22.006
23.3008
14.8316
14.7838
14.7339
14.6818
14.6274
14.5708
14.5118
14.4505
14.3867
14.3207
14.2523
14.1817
14.109
14.0345
13.9584
13.88
13.8017
13.7276
13.6577
13.5932
13.5341
13.4817
13.4368
13.3995
13.3734
13.3549
13.3561
13.3666
13.3891
13.435
13.5024
13.5961
13.7191
13.8788
14.0797
14.2979
14.5165
14.7682
15.0568
15.3864
15.762
16.189
16.674
17.2236
17.8471
18.5523
19.3516
20.2553
21.2782
22.4391
14.8316
14.784
14.7342
14.6822
14.628
14.5715
14.5127
14.4515
14.3879
14.322
14.2538
14.1833
14.1108
14.0364
13.9605
13.8821
13.8038
13.7295
13.6596
13.5945
13.5352
13.4816
13.4363
13.397
13.3703
13.3483
13.3477
13.3553
13.3743
13.4151
13.4767
13.5634
13.6778
13.8268
14.0146
14.2186
14.4228
14.6578
14.9268
15.2334
15.582
15.9772
16.4248
16.9304
17.5015
18.1452
18.8709
19.689
20.6076
21.6494
14.8317
14.7841
14.7345
14.6826
14.6285
14.5722
14.5135
14.4524
14.389
14.3232
14.2552
14.1849
14.1125
14.0383
13.9624
13.884
13.8059
13.7313
13.6613
13.5957
13.5361
13.4815
13.4355
13.3947
13.3665
13.3429
13.3383
13.3442
13.36
13.3958
13.4517
13.5316
13.6378
13.7766
13.9517
14.1422
14.3328
14.552
14.8024
15.0874
15.4107
15.7764
16.1892
16.6542
17.1773
17.7652
18.4242
19.1653
19.991
20.9266
14.8317
14.7843
14.7347
14.683
14.629
14.5728
14.5142
14.4533
14.3901
14.3244
14.2565
14.1864
14.1141
14.04
13.9642
13.8858
13.8077
13.733
13.6628
13.5967
13.5367
13.4814
13.4343
13.3926
13.3623
13.338
13.3288
13.3331
13.346
13.3771
13.4275
13.5008
13.599
13.728
13.8912
14.0688
14.2465
14.4506
14.6836
14.9483
15.248
15.5862
15.9669
16.3946
16.8738
17.4108
18.0097
18.6815
19.425
20.2652
14.8318
14.7845
14.735
14.6834
14.6295
14.5734
14.515
14.4542
14.3911
14.3256
14.2578
14.1878
14.1157
14.0416
13.9659
13.8875
13.8093
13.7345
13.6641
13.5977
13.537
13.4812
13.4329
13.3906
13.3577
13.3331
13.3194
13.3221
13.3321
13.3588
13.404
13.471
13.5616
13.6812
13.8329
13.9983
14.1637
14.3537
14.5702
14.816
15.0937
15.4064
15.7574
16.1507
16.5898
17.0806
17.6254
18.2347
18.9056
19.6603
14.8318
14.7846
14.7353
14.6837
14.63
14.574
14.5157
14.455
14.392
14.3266
14.259
14.1891
14.1171
14.0431
13.9674
13.8891
13.8108
13.7359
13.6651
13.5985
13.5371
13.481
13.4312
13.3885
13.3532
13.3283
13.3102
13.3112
13.3189
13.3408
13.3809
13.442
13.5253
13.636
13.7769
13.9307
14.0845
14.2611
14.4622
14.6902
14.9474
15.2364
15.56
15.9219
16.3244
16.7732
17.2693
17.8221
18.429
19.107
14.8319
14.7847
14.7355
14.6841
14.6304
14.5745
14.5163
14.4558
14.3929
14.3276
14.2601
14.1903
14.1184
14.0444
13.9688
13.8905
13.8121
13.7371
13.666
13.5992
13.5371
13.4806
13.4295
13.3862
13.3488
13.323
13.3018
13.2999
13.3058
13.3239
13.3583
13.4138
13.4903
13.5925
13.7231
13.8658
14.0088
14.1727
14.3594
14.5708
14.8088
15.076
15.3744
15.7072
16.0765
16.4869
16.9394
17.4412
17.9914
18.601
14.8319
14.7849
14.7357
14.6844
14.6308
14.575
14.5169
14.4565
14.3937
14.3286
14.2611
14.1914
14.1196
14.0457
13.9701
13.8918
13.8133
13.7382
13.6668
13.5997
13.537
13.4799
13.4278
13.3837
13.3447
13.3172
13.2945
13.2883
13.2925
13.3076
13.3366
13.3866
13.4565
13.5506
13.6714
13.8037
13.9363
14.0885
14.2616
14.4575
14.6778
14.9246
15.1997
15.506
15.8449
16.2204
16.6336
17.0895
17.5892
18.1381
14.832
14.785
14.7359
14.6847
14.6312
14.5755
14.5175
14.4572
14.3945
14.3294
14.2621
14.1924
14.1206
14.0469
13.9713
13.893
13.8144
13.7392
13.6674
13.6
13.5367
13.4791
13.4262
13.3808
13.3409
13.3109
13.2877
13.2767
13.2793
13.2916
13.3156
13.3604
13.4239
13.5103
13.6217
13.7443
13.8671
14.0082
14.1686
14.35
14.5538
14.7818
15.0355
15.3173
15.6286
15.9723
16.35
16.7647
17.2191
17.7145
14.832
14.7851
14.7361
14.6849
14.6316
14.576
14.518
14.4578
14.3952
14.3302
14.2629
14.1934
14.1217
14.0479
13.9723
13.894
13.8153
13.7399
13.6679
13.6001
13.5364
13.478
13.4245
13.3777
13.3372
13.3046
13.2811
13.2654
13.2665
13.2757
13.2954
13.335
13.3925
13.4715
13.5742
13.6874
13.8011
13.9317
14.0802
14.2481
14.4365
14.6471
14.8811
15.1404
15.4265
15.7413
16.0868
16.4645
16.878
17.3265
14.832
14.7852
14.7363
14.6852
14.6319
14.5764
14.5185
14.4583
14.3958
14.3309
14.2637
14.1942
14.1226
14.0488
13.9733
13.8949
13.8161
13.7405
13.6683
13.6001
13.536