/*--------------------------------*- C++ -*----------------------------------*\
  =========                 |
  \\      /  F ield         | OpenFOAM: The Open Source CFD Toolbox
   \\    /   O peration     | Website:  https://openfoam.org
    \\  /    A nd           | Version:  13
     \\/     M anipulation  |
\*---------------------------------------------------------------------------*/
FoamFile
{
    format      ascii;
    class       volScalarField;
    location    "753";
    object      k;
}
// * * * * * * * * * * * * * * * * * * * * * * * * * * * * * * * * * * * * * //

dimensions      [0 2 -2 0 0 0 0];

internalField   nonuniform List<scalar> 
78000
(
0.0909416
0.0377392
0.0367598
0.0422131
0.0459047
0.0589737
0.0632804
0.0741732
0.0767126
0.0830948
0.0842721
0.0866688
0.0875107
0.0878013
0.08744
0.08646
0.0849342
0.0830282
0.0807569
0.0783325
0.0755958
0.0727208
0.069607
0.0663194
0.0628813
0.0592534
0.0555242
0.0516539
0.0477094
0.0437083
0.039703
0.0357574
0.0319133
0.0282713
0.0248227
0.0220567
0.0198702
0.0179551
0.0161176
0.0146333
0.0130558
0.0119528
0.0104916
0.00970823
0.00873382
0.0106516
0.0128587
0.0291757
0.0328463
0.0559072
0.367679
0.326135
0.328853
0.375272
0.404449
0.51068
0.543177
0.626883
0.644532
0.691166
0.698269
0.714388
0.718971
0.719529
0.71533
0.706644
0.694014
0.678683
0.660722
0.641665
0.6203
0.597885
0.573645
0.548031
0.521194
0.492807
0.463516
0.432993
0.401729
0.369839
0.337716
0.305852
0.274578
0.244707
0.216185
0.193115
0.174747
0.158549
0.14291
0.130194
0.116601
0.107041
0.0943014
0.0874454
0.0788133
0.0957
0.114476
0.249862
0.278847
0.440466
0.349105
0.3364
0.40737
0.58153
0.668377
0.864077
0.930253
1.07049
1.10673
1.18353
1.20008
1.22784
1.23767
1.24103
1.23643
1.22536
1.20796
1.18626
1.16034
1.13255
1.10099
1.06756
1.031
0.991945
0.950538
0.906161
0.859722
0.810577
0.759392
0.706247
0.651707
0.596561
0.541396
0.487709
0.435559
0.392726
0.358185
0.327432
0.297461
0.272894
0.246392
0.227666
0.202363
0.188854
0.171147
0.204344
0.23922
0.480032
0.505463
0.889124
0.389499
0.342989
0.386312
0.527574
0.661434
0.918591
1.03901
1.22491
1.2965
1.40296
1.44067
1.48481
1.50645
1.51931
1.52079
1.51462
1.50015
1.47989
1.4541
1.42575
1.39257
1.35695
1.31734
1.27451
1.2286
1.17878
1.12608
1.06958
1.00996
0.947157
0.881695
0.814415
0.745951
0.678161
0.611167
0.555308
0.509624
0.46859
0.428181
0.394859
0.358611
0.332926
0.298008
0.279357
0.254409
0.298059
0.342398
0.647346
0.661479
1.26606
0.389234
0.355402
0.364759
0.420593
0.538859
0.783155
0.945251
1.17227
1.2924
1.43702
1.50973
1.57936
1.62144
1.65121
1.66608
1.67041
1.66482
1.65139
1.63076
1.60661
1.57652
1.54335
1.5054
1.4636
1.4181
1.36795
1.31426
1.25586
1.1934
1.12664
1.056
0.982245
0.905948
0.829167
0.752038
0.686828
0.632792
0.583863
0.535236
0.494928
0.450792
0.419462
0.376728
0.353935
0.322791
0.373053
0.42282
0.769631
0.783941
1.59393
0.389154
0.372346
0.361841
0.373914
0.428059
0.57563
0.737577
0.982894
1.15218
1.33722
1.45374
1.55739
1.62846
1.68282
1.71788
1.73923
1.74725
1.74532
1.73411
1.71784
1.69433
1.66689
1.63381
1.59623
1.55433
1.5071
1.45572
1.39882
1.33702
1.26985
1.19759
1.12087
1.04011
0.957452
0.873
0.80056
0.739732
0.684179
0.628466
0.582015
0.530861
0.494442
0.444673
0.418157
0.381018
0.435821
0.489049
0.864297
0.889483
1.89722
0.39071
0.385551
0.373121
0.364843
0.379716
0.435622
0.538296
0.736044
0.920084
1.13414
1.29736
1.4417
1.54991
1.6351
1.69656
1.74071
1.76779
1.78204
1.78331
1.77874
1.76486
1.74596
1.72038
1.68955
1.65374
1.6119
1.56533
1.51247
1.45392
1.389
1.3178
1.24075
1.15807
1.07189
0.982215
0.904097
0.837581
0.776259
0.714184
0.662077
0.604374
0.563109
0.506657
0.476562
0.433249
0.491139
0.546706
0.940266
0.985486
2.18892
0.391805
0.393097
0.386994
0.37249
0.370679
0.382364
0.423236
0.528183
0.674902
0.878291
1.06794
1.24772
1.3953
1.51709
1.61172
1.68471
1.73569
1.77029
1.78817
1.79829
1.79673
1.78931
1.77366
1.7519
1.72435
1.69004
1.65042
1.60375
1.55065
1.4902
1.42231
1.34719
1.26479
1.17711
1.08402
1.00155
0.930282
0.863883
0.796005
0.738575
0.674625
0.628611
0.565631
0.531945
0.482091
0.541802
0.59894
1.00242
1.07603
2.47604
0.391965
0.39754
0.394991
0.384984
0.375967
0.371733
0.380946
0.416388
0.494249
0.637896
0.811714
1.00333
1.18091
1.3378
1.46782
1.5741
1.65432
1.71413
1.75271
1.78078
1.79443
1.80073
1.79762
1.78722
1.77004
1.7453
1.71461
1.67611
1.63045
1.57651
1.51402
1.4429
1.36281
1.27556
1.1808
1.09525
1.02011
0.949279
0.876104
0.813629
0.743657
0.69292
0.623461
0.586061
0.529201
0.589492
0.647589
1.05389
1.16387
2.76276
0.391441
0.399697
0.399384
0.393662
0.385136
0.375257
0.372778
0.379248
0.405546
0.472849
0.590305
0.752875
0.933237
1.11204
1.27315
1.41359
1.52577
1.61441
1.67722
1.72711
1.75952
1.78235
1.79388
1.79676
1.79236
1.77921
1.75943
1.73103
1.69476
1.6493
1.59422
1.52915
1.4534
1.36849
1.27381
1.18648
1.1084
1.03381
0.955862
0.88862
0.812833
0.757364
0.681424
0.640088
0.575722
0.6353
0.693803
1.097
1.25125
3.05175
0.390422
0.400295
0.401763
0.398549
0.392115
0.382785
0.375829
0.372135
0.376679
0.397625
0.449967
0.551684
0.695816
0.867261
1.04282
1.21063
1.35367
1.47274
1.56263
1.63706
1.69091
1.73342
1.76268
1.78143
1.79143
1.79168
1.78511
1.76876
1.74386
1.70888
1.66324
1.60628
1.53694
1.45638
1.36364
1.27593
1.19591
1.11831
1.03618
0.964485
0.883112
0.8229
0.740458
0.6949
0.622493
0.679998
0.738366
1.13376
1.34013
3.34481
0.389053
0.399877
0.402753
0.400953
0.396581
0.389076
0.381883
0.374811
0.371317
0.374355
0.390035
0.432025
0.517064
0.645835
0.805246
0.981188
1.146
1.2926
1.41005
1.51069
1.58853
1.65304
1.70221
1.73963
1.76691
1.78287
1.79077
1.78852
1.77724
1.75477
1.72069
1.67399
1.61324
1.53913
1.45036
1.36382
1.28299
1.20325
1.11762
1.04187
0.955196
0.890254
0.801297
0.751186
0.670198
0.724188
0.781877
1.16606
1.43238
3.64315
0.38745
0.398751
0.402736
0.401853
0.399082
0.393432
0.387119
0.380014
0.373823
0.370101
0.371965
0.383821
0.417195
0.488631
0.601132
0.75414
0.919837
1.0829
1.22359
1.34937
1.45223
1.54038
1.61176
1.66985
1.71632
1.75089
1.77588
1.78955
1.79332
1.78593
1.76562
1.73143
1.68159
1.61624
1.53365
1.45001
1.36967
1.28881
1.2005
1.1212
1.0296
0.959988
0.864538
0.80952
0.719408
0.768408
0.824855
1.19585
1.52972
3.94751
0.385719
0.397113
0.40197
0.401805
0.40017
0.396155
0.390914
0.384633
0.378326
0.372397
0.368772
0.369675
0.378624
0.405536
0.464117
0.567399
0.70444
0.862063
1.01351
1.15816
1.28389
1.39555
1.49033
1.5708
1.63856
1.69344
1.73785
1.77049
1.79142
1.80067
1.7963
1.77734
1.74088
1.68676
1.61282
1.53404
1.45569
1.37489
1.28494
1.20273
1.1067
1.03254
0.930681
0.870399
0.770636
0.813182
0.8678
1.22511
1.63374
4.25821
0.383962
0.395106
0.400593
0.401164
0.400275
0.397581
0.393387
0.388089
0.382394
0.376346
0.370975
0.367188
0.367547
0.374293
0.395887
0.446942
0.534858
0.659686
0.799892
0.948977
1.08976
1.22122
1.33839
1.44168
1.53206
1.609
1.67471
1.72803
1.76963
1.79758
1.8115
1.80942
1.78959
1.7494
1.68682
1.61512
1.54048
1.46118
1.3708
1.2865
1.1867
1.10825
1.00014
0.934268
0.824367
0.859042
0.911232
1.25584
1.74581
4.57512
0.382268
0.39284
0.398754
0.400039
0.399719
0.398026
0.394793
0.390431
0.385519
0.379977
0.374512
0.369227
0.365717
0.365397
0.370578
0.388918
0.43059
0.507317
0.61246
0.743658
0.883587
1.02509
1.15952
1.28349
1.39625
1.49609
1.58462
1.66046
1.72423
1.77466
1.80889
1.82689
1.82493
1.80242
1.75427
1.69213
1.62318
1.54705
1.45775
1.37241
1.2697
1.18731
1.07327
1.00152
0.88108
0.906544
0.955711
1.29009
1.86701
4.89761
0.380712
0.390423
0.396569
0.3985
0.398704
0.397718
0.395367
0.391838
0.387699
0.382837
0.377785
0.372416
0.367633
0.364026
0.363346
0.367567
0.382385
0.417097
0.478533
0.571563
0.688789
0.822928
0.962997
1.10089
1.23272
1.3544
1.46615
1.56579
1.65351
1.72784
1.78659
1.8266
1.84632
1.84288
1.81325
1.76359
1.70261
1.63162
1.5452
1.46009
1.35559
1.26982
1.1503
1.07251
0.941256
0.956272
1.00185
1.32979
1.99799
5.22493
0.379344
0.387959
0.394138
0.396607
0.397357
0.396845
0.395267
0.392485
0.389056
0.384887
0.3804
0.375409
0.37052
0.365803
0.362399
0.361336
0.364614
0.376487
0.403395
0.454931
0.533444
0.639461
0.766549
0.904894
1.04731
1.18625
1.31928
1.44264
1.5553
1.65536
1.73988
1.80703
1.85028
1.87011
1.8605
1.82765
1.7772
1.71363
1.63225
1.54898
1.44408
1.35571
1.23139
1.14751
1.00539
1.00875
1.05038
1.37649
2.13912
5.55591
0.378195
0.385553
0.391553
0.394439
0.395702
0.395577
0.39462
0.39252
0.389724
0.386206
0.382307
0.377844
0.373247
0.368448
0.364069
0.360597
0.35936
0.361755
0.370741
0.392241
0.433782
0.500579
0.595677
0.715135
0.852787
0.998711
1.147
1.2913
1.42823
1.55487
1.667
1.76264
1.83488
1.88078
1.89485
1.88077
1.84497
1.79145
1.71767
1.63816
1.53466
1.44471
1.31654
1.22674
1.07397
1.06444
1.10212
1.43064
2.29114
5.88886
0.377271
0.3833
0.388909
0.392072
0.393765
0.394037
0.393509
0.392058
0.389819
0.386897
0.38356
0.379653
0.375492
0.370975
0.366497
0.362145
0.358856
0.35741
0.358992
0.365846
0.382575
0.416213
0.472965
0.557229
0.670471
0.806329
0.957647
1.11544
1.27285
1.42497
1.56543
1.69124
1.79496
1.87173
1.91382
1.92084
1.90265
1.86299
1.79986
1.7264
1.6265
1.53634
1.40562
1.31029
1.14742
1.12397
1.15785
1.49254
2.45387
6.22146
0.37656
0.38128
0.386307
0.389584
0.391598
0.392273
0.392061
0.391152
0.389442
0.387053
0.384238
0.380869
0.377184
0.373084
0.368835
0.364399
0.360318
0.357191
0.355564
0.356541
0.361617
0.374746
0.40199
0.449658
0.525339
0.631847
0.767463
0.924573
1.09344
1.26631
1.43361
1.59032
1.72696
1.83924
1.91282
1.94655
1.94676
1.9254
1.87673
1.81201
1.71844
1.62979
1.49824
1.39811
1.22607
1.18804
1.21829
1.56237
2.62623
6.5506
0.376033
0.379549
0.383842
0.387058
0.389269
0.390298
0.390378
0.389875
0.38866
0.38676
0.384418
0.381551
0.378338
0.374694
0.370807
0.366593
0.362427
0.358633
0.355658
0.353907
0.354397
0.358145
0.368485
0.390371
0.43126
0.498945
0.600289
0.736531
0.900587
1.08358
1.27218
1.45801
1.62849
1.7773
1.89021
1.95251
1.97678
1.97439
1.9452
1.89277
1.80891
1.7239
1.59378
1.48993
1.3101
1.25731
1.28416
1.64006
2.80624
6.87215
0.375657
0.37813
0.381601
0.384583
0.386857
0.388145
0.388533
0.388302
0.387531
0.386077
0.384172
0.381762
0.378999
0.375809
0.372331
0.368467
0.364494
0.36064
0.357138
0.354267
0.352473
0.352616
0.355363
0.363488
0.38145
0.416751
0.478077
0.575941
0.713595
0.888281
1.08602
1.29471
1.49726
1.6838
1.83763
1.93638
1.98692
2.00939
2.00024
1.96586
1.89583
1.81702
1.69124
1.58522
1.39956
1.33234
1.35612
1.72535
2.99103
7.18074
0.375396
0.37702
0.37965
0.382249
0.384445
0.385883
0.38654
0.386527
0.386103
0.385069
0.383554
0.381566
0.37922
0.376462
0.3734
0.369932
0.366278
0.362603
0.359087
0.355802
0.353091
0.351285
0.351193
0.353183
0.359717
0.37482
0.405607
0.462741
0.557806
0.700948
0.887221
1.10517
1.33317
1.55591
1.75196
1.89115
1.974
2.025
2.04026
2.02644
1.97636
1.90689
1.78925
1.68307
1.49425
1.41356
1.43472
1.81768
3.17687
7.46962
0.375221
0.376189
0.378027
0.380137
0.382121
0.383589
0.38443
0.384641
0.384436
0.383778
0.382618
0.381012
0.379053
0.376697
0.374037
0.370974
0.367689
0.364305
0.360979
0.357697
0.354717
0.352085
0.350449
0.350055
0.351617
0.357017
0.370202
0.397709
0.451588
0.547605
0.697433
0.90172
1.14049
1.39272
1.63027
1.81071
1.93176
2.01638
2.06141
2.07198
2.04515
1.99049
1.8859
1.78207
1.59363
1.50115
1.52031
1.91621
3.35925
7.73077
0.375099
0.375598
0.376735
0.378309
0.37997
0.381348
0.38227
0.382669
0.382619
0.382249
0.381418
0.38015
0.378544
0.376561
0.374277
0.371609
0.368706
0.365659
0.362618
0.359519
0.356596
0.353765
0.35144
0.34979
0.349369
0.35061
0.355422
0.366855
0.393257
0.445017
0.543872
0.706693
0.931261
1.19758
1.4706
1.69255
1.85179
1.97872
2.0571
2.09992
2.09662
2.06381
1.97878
1.88013
1.69677
1.59497
1.6129
2.0198
3.53305
7.9553
0.375008
0.375188
0.375762
0.3768
0.378063
0.379244
0.380141
0.38065
0.380732
0.380542
0.380002
0.37903
0.377737
0.376095
0.374163
0.371866
0.369338
0.366642
0.363925
0.361098
0.358377
0.355625
0.353179
0.350941
0.349519
0.349062
0.350253
0.354322
0.366255
0.389911
0.444434
0.548078
0.728226
0.981566
1.27492
1.53381
1.73189
1.90028
2.02427
2.10141
2.13047
2.12113
2.0627
1.97422
1.80224
1.69443
1.71209
2.12699
3.69267
8.13405
0.374923
0.374899
0.375082
0.375613
0.376452
0.377352
0.378125
0.37865
0.378827
0.378741
0.378415
0.377706
0.376682
0.37534
0.373733
0.371781
0.369609
0.36726
0.364876
0.362359
0.359911
0.357373
0.355036
0.352739
0.350859
0.349493
0.349271
0.350317
0.355008
0.36485
0.393129
0.445812
0.562009
0.766845
1.05274
1.33545
1.56857
1.7793
1.94898
2.07471
2.13891
2.16112
2.13027
2.06017
1.90807
1.79825
1.81687
2.23592
3.83233
8.25698
0.374865
0.374665
0.374605
0.374746
0.375155
0.375729
0.376299
0.376746
0.376953
0.37692
0.376725
0.37623
0.37543
0.374348
0.373025
0.371393
0.36955
0.367533
0.365476
0.36328
0.361132
0.358875
0.356759
0.35461
0.352726
0.351021
0.349947
0.349942
0.35132
0.355046
0.368994
0.393071
0.459548
0.584068
0.82519
1.10612
1.36233
1.61182
1.82722
2.00486
2.11754
2.17865
2.17573
2.13316
2.01029
1.9042
1.92542
2.34442
3.94686
8.31478
0.374824
0.374504
0.374245
0.374122
0.374184
0.374405
0.374722
0.375015
0.375171
0.375149
0.375012
0.374653
0.374033
0.373168
0.37209
0.370736
0.369201
0.36749
0.365743
0.363864
0.362022
0.360073
0.358232
0.356333
0.354619
0.352967
0.351648
0.350858
0.351154
0.352373
0.358657
0.369436
0.405564
0.46847
0.627122
0.867149
1.12214
1.39783
1.65571
1.88363
2.05374
2.16437
2.19998
2.1857
2.10173
2.00873
2.03488
2.44989
4.03205
8.30058
0.374793
0.37439
0.373997
0.373671
0.373463
0.373396
0.373429
0.373514
0.373549
0.373493
0.373346
0.373044
0.372553
0.371855
0.370978
0.369863
0.368591
0.367171
0.365705
0.364127
0.362584
0.360948
0.359402
0.357803
0.356345
0.354909
0.353677
0.3527
0.352315
0.35275
0.355303
0.360184
0.378836
0.408531
0.502271
0.651473
0.871226
1.14669
1.43383
1.70917
1.93383
2.10916
2.19303
2.21659
2.17316
2.10677
2.14109
2.54927
4.08481
8.21444
0.374769
0.374308
0.373827
0.373361
0.372954
0.372643
0.372424
0.372282
0.372155
0.371993
0.371785
0.371484
0.371057
0.370472
0.369745
0.368824
0.367776
0.366602
0.365403
0.364098
0.362835
0.361502
0.360255
0.358972
0.357812
0.356669
0.355674
0.354819
0.354278
0.354281
0.355312
0.357571
0.366878
0.381069
0.432498
0.50979
0.654549
0.885916
1.17177
1.48023
1.75729
1.99229
2.14724
2.21959
2.21578
2.19156
2.23865
2.63902
4.10221
8.02707
0.374751
0.374246
0.373707
0.373151
0.372607
0.372111
0.371681
0.371321
0.371009
0.370704
0.370392
0.370038
0.369614
0.369084
0.368455
0.367677
0.366806
0.36584
0.364863
0.363819
0.362806
0.361756
0.360796
0.359827
0.358978
0.358161
0.357476
0.356893
0.356484
0.356478
0.356913
0.358114
0.362698
0.369787
0.396618
0.434449
0.515225
0.6605
0.898834
1.2071
1.52215
1.81416
2.03939
2.18602
2.23058
2.24915
2.32123
2.71521
4.08569
7.74934
0.374736
0.374199
0.373621
0.373008
0.372374
0.37175
0.371157
0.370613
0.370119
0.369655
0.36921
0.36876
0.368288
0.367757
0.367171
0.366484
0.36574
0.364938
0.364144
0.363314
0.362538
0.361738
0.361045
0.360376
0.359835
0.359348
0.359005
0.358756
0.358661
0.358787
0.359229
0.35988
0.362464
0.366336
0.379914
0.398678
0.441301
0.514822
0.666345
0.921793
1.23864
1.57304
1.86196
2.09209
2.20831
2.27152
2.3801
2.77126
4.03504
7.38759
0.374725
0.374162
0.373558
0.372908
0.37222
0.371512
0.370805
0.370119
0.369468
0.36885
0.368261
0.367691
0.367131
0.366553
0.365959
0.365309
0.364641
0.363956
0.3633
0.362646
0.362059
0.361497
0.361037
0.360643
0.360393
0.360224
0.360229
0.360332
0.360588
0.361044
0.361702
0.362512
0.364058
0.366728
0.373625
0.383461
0.405418
0.440243
0.522467
0.676795
0.93968
1.27864
1.61674
1.9187
2.13171
2.25667
2.40036
2.79588
3.94797
6.95541
0.374716
0.374134
0.37351
0.372837
0.372116
0.371358
0.370578
0.369792
0.36902
0.368268
0.367545
0.366848
0.366178
0.365519
0.364875
0.364215
0.363572
0.362955
0.362393
0.361872
0.361432
0.361057
0.360824
0.360664
0.360677
0.360798
0.361108
0.361596
0.362247
0.363079
0.364114
0.365254
0.366745
0.368551
0.372633
0.378548
0.389392
0.406616
0.449519
0.525457
0.686076
0.966577
1.31297
1.67152
1.96883
2.19195
2.37794
2.78307
3.82551
6.4692
0.374708
0.374111
0.373473
0.372785
0.372046
0.371259
0.370435
0.369586
0.368729
0.367876
0.367039
0.366225
0.365441
0.364685
0.363962
0.363254
0.362593
0.361999
0.361483
0.361052
0.360715
0.360494
0.360437
0.36049
0.360689
0.361097
0.361714
0.362542
0.363586
0.364821
0.366297
0.367874
0.369687
0.371652
0.374148
0.378496
0.383993
0.3933
0.415222
0.450746
0.53684
0.69972
0.987358
1.35905
1.72427
2.04445
2.30381
2.72263
3.66341
5.94833
0.374703
0.374094
0.373445
0.372748
0.371998
0.371196
0.370348
0.369463
0.368553
0.36763
0.366708
0.365798
0.364912
0.364057
0.363243
0.362464
0.361751
0.361142
0.360632
0.360249
0.359967
0.359875
0.359932
0.360123
0.360536
0.361166
0.362053
0.363189
0.364601
0.366239
0.36817
0.370242
0.372544
0.374941
0.377506
0.380329
0.384219
0.389797
0.400681
0.418435
0.462836
0.542131
0.712067
1.02185
1.40592
1.80586
2.15149
2.58675
3.44668
5.40718
0.374698
0.37408
0.373424
0.37272
0.371964
0.371156
0.370297
0.369394
0.368454
0.367489
0.36651
0.36553
0.364563
0.363623
0.36272
0.361861
0.361077
0.360426
0.359889
0.359517
0.359252
0.35925
0.359366
0.359662
0.360234
0.361061
0.362168
0.363572
0.365312
0.367329
0.369701
0.372283
0.375137
0.378121
0.381173
0.384092
0.386813
0.390834
0.396905
0.406753
0.42952
0.466646
0.557408
0.731714
1.05588
1.48189
1.91406
2.37929
3.16554
4.85095
0.374695
0.37407
0.373407
0.372699
0.371942
0.371131
0.370269
0.369359
0.368406
0.367418
0.366406
0.365382
0.364358
0.363351
0.362375
0.36144
0.360582
0.359875
0.35929
0.358899
0.358627
0.358653
0.35881
0.359175
0.359853
0.360819
0.362113
0.363735
0.365754
0.368112
0.37089
0.373965
0.377382
0.381016
0.384759
0.388148
0.391158
0.394232
0.398296
0.405079
0.416662
0.4354
0.483171
0.567708
0.758369
1.11505
1.58585
2.10024
2.81464
4.27328
0.374692
0.374062
0.373395
0.372685
0.371927
0.371117
0.370256
0.369346
0.36839
0.367394
0.366366
0.365317
0.364258
0.363208
0.362176
0.361181
0.360256
0.359492
0.358849
0.358424
0.35812
0.358146
0.358315
0.358708
0.359449
0.360505
0.361939
0.363729
0.365974
0.368622
0.371756
0.375285
0.379243
0.383532
0.38805
0.392113
0.395683
0.399227
0.402823
0.407343
0.415114
0.426465
0.447625
0.495396
0.587625
0.796823
1.19764
1.74276
2.40523
3.66358
0.37469
0.374056
0.373386
0.372675
0.371917
0.371111
0.370254
0.369347
0.368393
0.367398
0.366366
0.365307
0.364231
0.363156
0.362089
0.361052
0.360075
0.359261
0.358564
0.358099
0.357745
0.357759
0.357918
0.358306
0.359072
0.360179
0.361692
0.363621
0.366025
0.368905
0.372336
0.376261
0.380715
0.385628
0.390927
0.395759
0.400042
0.404317
0.40864
0.412899
0.41812
0.426923
0.4392
0.466144
0.50961
0.627307
0.84688
1.32448
1.93903
3.02035
0.374689
0.374051
0.373379
0.372668
0.371913
0.37111
0.370258
0.369358
0.36841
0.36742
0.36639
0.365332
0.36425
0.363165
0.362081
0.361019
0.360007
0.359156
0.358415
0.357913
0.357507
0.357496
0.357635
0.357999
0.358758
0.359882
0.361435
0.363435
0.365964
0.36901
0.372672
0.376925
0.381809
0.387291
0.393331
0.39895
0.404008
0.409152
0.414406
0.419658
0.425194
0.431365
0.441487
0.4577
0.482233
0.547477
0.654924
0.947941
1.42936
2.35088
0.374688
0.374048
0.373375
0.372665
0.371911
0.371113
0.370268
0.369375
0.368436
0.367453
0.366431
0.365378
0.3643
0.363213
0.362122
0.361049
0.360019
0.359145
0.358374
0.357839
0.357399
0.35734
0.357464
0.357799
0.358528
0.359641
0.361199
0.36323
0.365822
0.368983
0.372809
0.377315
0.382552
0.388526
0.395234
0.40161
0.407438
0.413497
0.41979
0.426259
0.432972
0.440261
0.448285
0.459987
0.478634
0.515105
0.569666
0.728065
1.01367
1.64424
0.374687
0.374047
0.373373
0.372664
0.371913
0.37112
0.370281
0.369397
0.368467
0.367494
0.366482
0.365439
0.364368
0.363287
0.362198
0.361123
0.360085
0.359195
0.358408
0.357847
0.357392
0.357279
0.357387
0.357694
0.358384
0.359467
0.361005
0.363034
0.365638
0.368869
0.372789
0.377468
0.382973
0.389348
0.396627
0.403691
0.410242
0.417192
0.42454
0.432287
0.440441
0.44926
0.458845
0.470024
0.484262
0.509377
0.54238
0.627022
0.765993
1.14322
0.374687
0.374046
0.373373
0.372665
0.371918
0.371129
0.370297
0.369422
0.368502
0.36754
0.366539
0.365507
0.364447
0.363374
0.362294
0.361222
0.360187
0.35929
0.358498
0.357911
0.357447
0.357289
0.357383
0.357663
0.358312
0.359355
0.360855
0.362855
0.365441
0.368673
0.372656
0.377428
0.383099
0.389775
0.39751
0.405163
0.412355
0.420121
0.42847
0.437453
0.447092
0.45761
0.469122
0.482295
0.49677
0.514655
0.543407
0.589861
0.657867
0.855251
0.374687
0.374047
0.373375
0.372668
0.371924
0.371141
0.370316
0.369449
0.368539
0.367589
0.366601
0.36558
0.364532
0.363471
0.362402
0.361336
0.360309
0.359409
0.358621
0.358014
0.357553
0.357347
0.357425
0.357678
0.358287
0.359287
0.360737
0.36269
0.365229
0.368429
0.372391
0.377224
0.382995
0.389824
0.397882
0.406004
0.413728
0.422194
0.431432
0.441532
0.452561
0.464736
0.478214
0.493492
0.510726
0.530416
0.552372
0.587146
0.626995
0.725083
0.374687
0.374048
0.373377
0.372673
0.371933
0.371155
0.370337
0.369478
0.368579
0.36764
0.366664
0.365657
0.364622
0.363573
0.362516
0.361458
0.360442
0.359541
0.358759
0.358137
0.35768
0.357437
0.357502
0.357726
0.358292
0.359243
0.360635
0.362526
0.364997
0.368133
0.372037
0.376825
0.382634
0.389593
0.397803
0.406199
0.414312
0.423333
0.433299
0.444337
0.456561
0.470199
0.485465
0.502763
0.522473
0.545002
0.569709
0.596942
0.632645
0.682228
0.374688
0.37405
0.373381
0.37268
0.371944
0.371171
0.37036
0.36951
0.36862
0.367693
0.366729
0.365734
0.364714
0.363677
0.362634
0.361585
0.36058
0.359679
0.358905
0.358269
0.357816
0.357538
0.357588
0.357786
0.358306
0.359205
0.360532
0.362348
0.364733
0.367777
0.371585
0.376286
0.382012
0.388969
0.397321
0.405896
0.41419
0.423485
0.433937
0.445686
0.458849
0.473654
0.490369
0.509375
0.531088
0.555988
0.58397
0.614833
0.645654
0.682104
0.374689
0.374053
0.373387
0.372688
0.371956
0.371189
0.370384
0.369542
0.368663
0.367746
0.366795
0.365813
0.364807
0.363782
0.362753
0.361713
0.36072
0.35982
0.359054
0.358405
0.357955
0.357641
0.357675
0.35785
0.358315
0.359158
0.360414
0.362145
0.364428
0.367358
0.371036
0.375604
0.381191
0.388023
0.396274
0.404934
0.413418
0.422928
0.433603
0.445606
0.459226
0.474745
0.492445
0.512707
0.535895
0.562489
0.59279
0.626605
0.662634
0.697653
0.37469
0.374056
0.373392
0.372697
0.371969
0.371206
0.370407
0.369572
0.368701
0.367793
0.366853
0.365882
0.364887
0.363872
0.362856
0.361824
0.360841
0.359942
0.359181
0.358521
0.358073
0.357727
0.357746
0.357902
0.358317
0.359102
0.360294
0.361945
0.364129
0.366944
0.370487
0.374906
0.380327
0.386989
0.395064
0.403591
0.411983
0.421568
0.432429
0.444695
0.458532
0.474249
0.492179
0.512681
0.536325
0.563543
0.594753
0.63001
0.668936
0.708592
0.374691
0.374059
0.373398
0.372705
0.37198
0.371221
0.370427
0.369597
0.368733
0.367833
0.366901
0.365938
0.364953
0.363947
0.36294
0.361915
0.36094
0.360042
0.359285
0.358616
0.358168
0.357795
0.3578
0.357937
0.358313
0.359044
0.360178
0.361757
0.363853
0.366563
0.369981
0.374257
0.379513
0.385995
0.393873
0.402226
0.41047
0.419902
0.430647
0.442907
0.456862
0.472746
0.490858
0.511533
0.535254
0.562517
0.59379
0.629279
0.66871
0.710758
0.374692
0.374062
0.373403
0.372713
0.371991
0.371236
0.370447
0.369622
0.368764
0.367871
0.366947
0.365992
0.365016
0.364019
0.36302
0.362001
0.361033
0.360137
0.359381
0.358706
0.358251
0.357863
0.357839
0.357958
0.358303
0.358978
0.360053
0.361558
0.363564
0.366165
0.369453
0.373576
0.378654
0.384931
0.392576
0.400705
0.408748
0.417962
0.428489
0.440525
0.454286
0.469999
0.488004
0.508658
0.532325
0.559471
0.590595
0.62606
0.665758
0.708797
0.374693
0.374065
0.373409
0.372722
0.372003
0.371251
0.370466
0.369647
0.368794
0.367908
0.366991
0.366044
0.365075
0.364086
0.363095
0.362083
0.36112
0.360226
0.359469
0.358791
0.358323
0.35793
0.357866
0.357969
0.358286
0.358904
0.359919
0.36135
0.363264
0.365755
0.368909
0.372872
0.37776
0.383814
0.3912
0.399068
0.406865
0.415806
0.426038
0.437748
0.451162
0.466517
0.484116
0.504318
0.52749
0.554074
0.584497
0.619304
0.658672
0.702507
0.374694
0.374069
0.373415
0.37273
0.372014
0.371267
0.370486
0.369671
0.368824
0.367944
0.367033
0.366094
0.365132
0.36415
0.363166
0.362161
0.361201
0.360311
0.359549
0.358872
0.358386
0.357992
0.357885
0.357971
0.35826
0.358823
0.359778
0.361135
0.362956
0.365335
0.368353
0.372153
0.376845
0.382664
0.38977
0.397349
0.404868
0.413493
0.42337
0.434679
0.447639
0.46249
0.479514
0.499054
0.521465
0.547178
0.576578
0.610199
0.648285
0.691122
0.374695
0.374072
0.373421
0.372739
0.372026
0.371282
0.370505
0.369695
0.368853
0.367978
0.367074
0.366141
0.365186
0.364212
0.363232
0.362234
0.361276
0.36039
0.359623
0.358947
0.358442
0.358048
0.357898
0.357967
0.358226
0.358736
0.359631
0.360913
0.362643
0.36491
0.367791
0.371425
0.375918
0.381495
0.388309
0.395581
0.402798
0.411076
0.420557
0.43141
0.443841
0.458086
0.474407
0.493128
0.514582
0.539185
0.567297
0.599422
0.635837
0.676981
0.374696
0.374076
0.373427
0.372748
0.372038
0.371297
0.370524
0.369719
0.368881
0.368012
0.367113
0.366186
0.365238
0.36427
0.363296
0.362304
0.361347
0.360465
0.359692
0.359017
0.358492
0.358098
0.357905
0.357958
0.358186
0.358644
0.35948
0.360688
0.362327
0.364481
0.367227
0.370695
0.374987
0.380319
0.386835
0.393789
0.400689
0.408601
0.417658
0.428018
0.439872
0.453443
0.468976
0.48677
0.507133
0.530457
0.557086
0.587482
0.621957
0.660917
0.374697
0.374079
0.373433
0.372757
0.37205
0.371312
0.370543
0.369742
0.368909
0.368044
0.367151
0.36623
0.365287
0.364325
0.363355
0.362369
0.361413
0.360535
0.359755
0.359081
0.358536
0.358142
0.357906
0.357944
0.358138
0.358549
0.359324
0.360459
0.362008
0.364053
0.366664
0.369968
0.374059
0.379145
0.38536
0.391992
0.398568
0.406104
0.414721
0.424568
0.435818
0.448677
0.463371
0.480173
0.499367
0.521309
0.546328
0.57484
0.607195
0.643692
0.374699
0.374083
0.373439
0.372765
0.372062
0.371327
0.370561
0.369764
0.368935
0.368076
0.367187
0.366272
0.365333
0.364377
0.363411
0.36243
0.361475
0.3606
0.359813
0.35914
0.358575
0.35818
0.357903
0.357925
0.358086
0.35845
0.359166
0.360229
0.361689
0.363626
0.366104
0.369246
0.373139
0.37798
0.383897
0.390206
0.396457
0.403613
0.411785
0.421111
0.431746
0.443879
0.457712
0.473495
0.491483
0.511996
0.535345
0.561892
0.592021
0.625935
0.3747
0.374086
0.373445
0.372774
0.372073
0.371342
0.37058
0.369786
0.368961
0.368106
0.367222
0.366311
0.365378
0.364427
0.363465
0.362488
0.361533
0.360661
0.359867
0.359193
0.358611
0.358212
0.357896
0.357902
0.358031
0.35835
0.359006
0.359998
0.361372
0.363202
0.36555
0.368532
0.372231
0.376832
0.382453
0.388442
0.394371
0.40115
0.40888
0.417686
0.427709
0.439117
0.452092
0.466855
0.483639
0.502721
0.524393
0.548964
0.576826
0.608141
0.374701
0.37409
0.373451
0.372782
0.372085
0.371356
0.370597
0.369807
0.368986
0.368135
0.367256
0.36635
0.36542
0.364474
0.363515
0.362542
0.361588
0.360716
0.359917
0.359239
0.358644
0.358234
0.357894
0.357865
0.357971
0.35825
0.358845
0.359767
0.361056
0.362782
0.365004
0.36783
0.371338
0.375703
0.381034
0.386711
0.392323
0.398732
0.406029
0.414325
0.423746
0.434443
0.446578
0.460344
0.475949
0.493633
0.513664
0.536302
0.56192
0.590683
0.374702
0.374093
0.373456
0.372791
0.372096
0.37137
0.370614
0.369828
0.36901
0.368163
0.367288
0.366386
0.365461
0.364518
0.363563
0.362593
0.361639
0.360767
0.359965
0.35928
0.358675
0.358248
0.357896
0.35782
0.357907
0.358149
0.358686
0.359539
0.360745
0.362369
0.364466
0.36714
0.370463
0.374598
0.379647
0.385019
0.390323
0.396372
0.403246
0.411047
0.419886
0.429895
0.441219
0.454025
0.468496
0.48484
0.503294
0.524082
0.547533
0.573835
0.374703
0.374097
0.373462
0.372799
0.372107
0.371384
0.370631
0.369848
0.369034
0.36819
0.367318
0.36642
0.365499
0.36456
0.363608
0.36264
0.361688
0.360813
0.360009
0.359315
0.358704
0.358254
0.357898
0.35777
0.357838
0.358045
0.358527
0.359312
0.360438
0.361963
0.36394
0.366465
0.369607
0.37352
0.378295
0.383371
0.388377
0.394077
0.400544
0.407868
0.416148
0.425499
0.436048
0.44794
0.461336
0.476411
0.493373
0.512418
0.533821
0.557783
0.374704
0.3741
0.373468
0.372807
0.372117
0.371397
0.370647
0.369867
0.369056
0.368216
0.367348
0.366453
0.365535
0.3646
0.36365
0.362684
0.361733
0.360856
0.360049
0.359345
0.358731
0.358255
0.357897
0.357718
0.357767
0.357941
0.358366
0.359088
0.360135
0.361564
0.363424
0.365806
0.368773
0.37247
0.376981
0.38177
0.386489
0.391855
0.397932
0.404799
0.412546
0.421271
0.431087
0.442117
0.4545
0.468388
0.483957
0.501376
0.520876
0.542642
0.374705
0.374103
0.373473
0.372815
0.372127
0.37141
0.370663
0.369885
0.369078
0.368241
0.367376
0.366485
0.36557
0.364637
0.36369
0.362725
0.361775
0.360894
0.360087
0.359371
0.358754
0.358253
0.357892
0.357664
0.357693
0.357839
0.358203
0.358865
0.359837
0.361173
0.36292
0.365163
0.367962
0.371449
0.375705
0.38022
0.384664
0.389709
0.395413
0.401846
0.409087
0.417221
0.426346
0.436568
0.448007
0.46079
0.475069
0.490986
0.50874
0.528471
0.374706
0.374106
0.373478
0.372822
0.372137
0.371423
0.370678
0.369903
0.369099
0.368265
0.367403
0.366514
0.365602
0.364672
0.363727
0.362763
0.361814
0.360929
0.36012
0.359394
0.358773
0.358249
0.357883
0.357609
0.357618
0.357735
0.358046
0.358642
0.359542
0.360789
0.362427
0.364537
0.367173
0.37046
0.374471
0.378723
0.382903
0.387642
0.392991
0.399013
0.405775
0.413353
0.421831
0.4313
0.441862
0.453624
0.466717
0.481253
0.497416
0.515287
0.374707
0.374109
0.373483
0.372829
0.372147
0.371434
0.370692
0.36992
0.369118
0.368287
0.367428
0.366542
0.365633
0.364704
0.363762
0.362798
0.361849
0.360961
0.36015
0.359414
0.358787
0.358243
0.357866
0.35756
0.357536
0.357627
0.357896
0.358422
0.359253
0.360414
0.361947
0.363927
0.366407
0.369501
0.373277
0.377278
0.381206
0.385654
0.390667
0.3963
0.402612
0.409669
0.417543
0.42631
0.436062
0.446883
0.45889
0.472165
0.486884
0.50307
0.374708
0.374112
0.373488
0.372836
0.372156
0.371446
0.370706
0.369936
0.369137
0.368308
0.367452
0.366569
0.365662
0.364735
0.363795
0.36283
0.361882
0.360991
0.360176
0.359432
0.358796
0.358238
0.357842
0.357519
0.357444
0.357515
0.35775
0.358208