/*--------------------------------*- C++ -*----------------------------------*\
  =========                 |
  \\      /  F ield         | OpenFOAM: The Open Source CFD Toolbox
   \\    /   O peration     | Website:  https://openfoam.org
    \\  /    A nd           | Version:  13
     \\/     M anipulation  |
\*---------------------------------------------------------------------------*/
FoamFile
{
    format      ascii;
    class       volScalarField;
    location    "753";
    object      nut;
}
// * * * * * * * * * * * * * * * * * * * * * * * * * * * * * * * * * * * * * //

dimensions      [0 2 -1 0 0 0 0];

internalField   nonuniform List<scalar> 
78000
(
5.35781e-08
2.2234e-08
2.1657e-08
2.48698e-08
2.70447e-08
3.47443e-08
3.72816e-08
4.3699e-08
4.51951e-08
4.89552e-08
4.96488e-08
5.10608e-08
5.15568e-08
5.17281e-08
5.15152e-08
5.09378e-08
5.00389e-08
4.8916e-08
4.75778e-08
4.61495e-08
4.45372e-08
4.28434e-08
4.10089e-08
3.9072e-08
3.70465e-08
3.49091e-08
3.2712e-08
3.04319e-08
2.8108e-08
2.57507e-08
2.3391e-08
2.10664e-08
1.88016e-08
1.6656e-08
1.46243e-08
1.29946e-08
1.17065e-08
1.05782e-08
9.49567e-09
8.6212e-09
7.69182e-09
7.04199e-09
6.18112e-09
5.71959e-09
5.14552e-09
6.27538e-09
7.57567e-09
1.71889e-08
1.93514e-08
3.29377e-08
1.34808e-06
1.13208e-06
1.25414e-06
1.61888e-06
1.92369e-06
2.6448e-06
2.95539e-06
3.59458e-06
3.81951e-06
4.24554e-06
4.39936e-06
4.62335e-06
4.7618e-06
4.87146e-06
4.94531e-06
4.98627e-06
4.99662e-06
4.98132e-06
4.94203e-06
4.88995e-06
4.81688e-06
4.7324e-06
4.63066e-06
4.51507e-06
4.3863e-06
4.24104e-06
4.08352e-06
3.90955e-06
3.72158e-06
3.51846e-06
3.3014e-06
3.07263e-06
2.83326e-06
2.59029e-06
2.34239e-06
2.13106e-06
1.95444e-06
1.79381e-06
1.63186e-06
1.4982e-06
1.34953e-06
1.24441e-06
1.10044e-06
1.0211e-06
9.22335e-07
1.11364e-06
1.33298e-06
2.88329e-06
2.84455e-06
4.17902e-06
4.20447e-06
2.16712e-06
2.31484e-06
3.4934e-06
4.38851e-06
6.34601e-06
7.35003e-06
9.23016e-06
1.00819e-05
1.14937e-05
1.21806e-05
1.3086e-05
1.37587e-05
1.43541e-05
1.4846e-05
1.52629e-05
1.5593e-05
1.5842e-05
1.6018e-05
1.61541e-05
1.62285e-05
1.62719e-05
1.62675e-05
1.62275e-05
1.61546e-05
1.60385e-05
1.58921e-05
1.56992e-05
1.54642e-05
1.5176e-05
1.48289e-05
1.44173e-05
1.39275e-05
1.33678e-05
1.2707e-05
1.20771e-05
1.14848e-05
1.09075e-05
1.02473e-05
9.68716e-06
8.96851e-06
8.46932e-06
7.66952e-06
7.24894e-06
6.63015e-06
7.78993e-06
8.98344e-06
1.67475e-05
1.43987e-05
1.96799e-05
1.66334e-05
5.05763e-06
3.80072e-06
4.17872e-06
5.33328e-06
8.03561e-06
9.79075e-06
1.2619e-05
1.42791e-05
1.6676e-05
1.80783e-05
1.97906e-05
2.11559e-05
2.24206e-05
2.35044e-05
2.44969e-05
2.53493e-05
2.60585e-05
2.66457e-05
2.71658e-05
2.7586e-05
2.79613e-05
2.82657e-05
2.85249e-05
2.87467e-05
2.89178e-05
2.90662e-05
2.91673e-05
2.92345e-05
2.92512e-05
2.92099e-05
2.90981e-05
2.88836e-05
2.85671e-05
2.80604e-05
2.74979e-05
2.68676e-05
2.62131e-05
2.53047e-05
2.45451e-05
2.33288e-05
2.25527e-05
2.09504e-05
2.02201e-05
1.87778e-05
2.15367e-05
2.39261e-05
3.937e-05
3.28162e-05
3.91811e-05
5.63525e-05
1.24158e-05
7.39521e-06
5.16254e-06
5.89471e-06
8.34849e-06
1.04198e-05
1.38387e-05
1.62712e-05
1.95297e-05
2.17947e-05
2.43431e-05
2.6469e-05
2.84997e-05
3.02888e-05
3.19437e-05
3.34348e-05
3.47139e-05
3.58171e-05
3.68211e-05
3.76843e-05
3.8487e-05
3.91933e-05
3.98457e-05
4.04571e-05
4.10134e-05
4.15602e-05
4.20668e-05
4.25601e-05
4.30224e-05
4.34511e-05
4.38346e-05
4.41316e-05
4.43443e-05
4.43364e-05
4.41908e-05
4.38577e-05
4.34765e-05
4.26844e-05
4.20852e-05
4.07151e-05
3.99953e-05
3.78401e-05
3.71057e-05
3.48639e-05
3.94938e-05
4.28259e-05
6.49306e-05
5.40743e-05
5.86789e-05
0.000148246
3.00122e-05
1.62925e-05
8.8127e-06
7.45181e-06
8.04799e-06
9.91964e-06
1.34995e-05
1.65196e-05
2.04102e-05
2.3519e-05
2.68849e-05
2.97793e-05
3.26511e-05
3.52183e-05
3.7638e-05
3.98366e-05
4.17743e-05
4.34852e-05
4.50525e-05
4.64341e-05
4.77356e-05
4.89102e-05
5.00193e-05
5.10794e-05
5.20771e-05
5.30759e-05
5.40392e-05
5.50092e-05
5.59681e-05
5.69212e-05
5.78611e-05
5.87444e-05
5.95797e-05
6.01967e-05
6.06072e-05
6.0725e-05
6.07903e-05
6.03281e-05
6.01072e-05
5.8848e-05
5.84268e-05
5.59942e-05
5.5518e-05
5.26464e-05
5.9246e-05
6.33302e-05
9.07378e-05
7.53107e-05
7.75316e-05
0.000282977
6.46946e-05
3.61723e-05
1.7987e-05
1.25919e-05
9.4263e-06
9.84006e-06
1.23966e-05
1.5383e-05
1.95792e-05
2.34196e-05
2.75336e-05
3.1296e-05
3.49741e-05
3.83432e-05
4.15893e-05
4.45804e-05
4.72648e-05
4.9622e-05
5.185e-05
5.38206e-05
5.56882e-05
5.73919e-05
5.90164e-05
6.05778e-05
6.20657e-05
6.35605e-05
6.50194e-05
6.65007e-05
6.7986e-05
6.94903e-05
7.10109e-05
7.25095e-05
7.39999e-05
7.52877e-05
7.63045e-05
7.69363e-05
7.7523e-05
7.75015e-05
7.77718e-05
7.67952e-05
7.68176e-05
7.43288e-05
7.42744e-05
7.09928e-05
7.95371e-05
8.42923e-05
0.000115733
9.51664e-05
9.59061e-05
0.000429043
0.000119571
7.22628e-05
3.65998e-05
2.47078e-05
1.53361e-05
1.25286e-05
1.21465e-05
1.40811e-05
1.78015e-05
2.18783e-05
2.64912e-05
3.09895e-05
3.54718e-05
3.97591e-05
4.38451e-05
4.76733e-05
5.11544e-05
5.42398e-05
5.7184e-05
5.97922e-05
6.23113e-05
6.46051e-05
6.68052e-05
6.8922e-05
7.09506e-05
7.29877e-05
7.49824e-05
7.70108e-05
7.9052e-05
8.11322e-05
8.32585e-05
8.53836e-05
8.75349e-05
8.95096e-05
9.11503e-05
9.2326e-05
9.34711e-05
9.3957e-05
9.47825e-05
9.41949e-05
9.47384e-05
9.23587e-05
9.28131e-05
8.93479e-05
9.97208e-05
0.000105122
0.000139414
0.000113284
0.000113976
0.000560108
0.00019406
0.000124557
6.7835e-05
4.70671e-05
2.86526e-05
2.09072e-05
1.54642e-05
1.4592e-05
1.64097e-05
1.97614e-05
2.42979e-05
2.92062e-05
3.43214e-05
3.93907e-05
4.43711e-05
4.91052e-05
5.34238e-05
5.73108e-05
6.10292e-05
6.43274e-05
6.75366e-05
7.04928e-05
7.33361e-05
7.60651e-05
7.86901e-05
8.1321e-05
8.38977e-05
8.65157e-05
8.91489e-05
9.1838e-05
9.45883e-05
9.73624e-05
0.000100192
0.000102869
0.000105143
0.000106871
0.000108584
0.000109605
0.000111009
0.000110884
0.000111999
0.000109866
0.000110865
0.000107417
0.000119444
0.000125469
0.000161466
0.000129548
0.000131906
0.000664403
0.000283272
0.000191278
0.000111402
8.15891e-05
5.15303e-05
3.77507e-05
2.55869e-05
1.98408e-05
1.75518e-05
1.86494e-05
2.19669e-05
2.6549e-05
3.18771e-05
3.74932e-05
4.32528e-05
4.88136e-05
5.40759e-05
5.87319e-05
6.33135e-05
6.73812e-05
7.13542e-05
7.50006e-05
7.85203e-05
8.19435e-05
8.52258e-05
8.85084e-05
9.17204e-05
9.49789e-05
9.82495e-05
0.000101588
0.000104999
0.000108453
0.000111984
0.000115386
0.000118304
0.000120594
0.000122879
0.000124455
0.000126448
0.000126829
0.00012853
0.000126729
0.00012828
0.000125035
0.000138522
0.000145121
0.000181625
0.000144144
0.000149837
0.000740458
0.000380294
0.000269087
0.00016621
0.00012704
8.5143e-05
6.43118e-05
4.45438e-05
3.27856e-05
2.46106e-05
2.10809e-05
2.13696e-05
2.42523e-05
2.88837e-05
3.44895e-05
4.07216e-05
4.69565e-05
5.30551e-05
5.85348e-05
6.40118e-05
6.88191e-05
7.36501e-05
7.80733e-05
8.23562e-05
8.64814e-05
9.04579e-05
9.44825e-05
9.83898e-05
0.000102349
0.000106311
0.000110352
0.000114471
0.000118649
0.000122916
0.000127077
0.000130659
0.000133525
0.000136387
0.000138534
0.000141117
0.000142034
0.000144322
0.000142919
0.000145007
0.000142077
0.000156812
0.00016395
0.000199641
0.000157373
0.000167892
0.000792089
0.000477833
0.000353538
0.000230714
0.000181702
0.000128682
0.000100621
7.30846e-05
5.48457e-05
4.02322e-05
3.05907e-05
2.5312e-05
2.45142e-05
2.68277e-05
3.1297e-05
3.72971e-05
4.38105e-05
5.05362e-05
5.67525e-05
6.30289e-05
6.86826e-05
7.43899e-05
7.95585e-05
8.47034e-05
8.964e-05
9.43945e-05
9.91382e-05
0.000103808
0.000108556
0.000113274
0.000118082
0.000122968
0.000127927
0.00013298
0.000137949
0.000142228
0.00014569
0.000149141
0.000151876
0.000155052
0.000156526
0.000159394
0.000158436
0.000161027
0.000158489
0.000174231
0.000181835
0.000215213
0.000169605
0.000186178
0.000824826
0.000569264
0.000439916
0.000302789
0.000243813
0.000180926
0.000145417
0.000110837
8.61434e-05
6.50184e-05
4.9272e-05
3.74129e-05
3.04501e-05
2.82143e-05
2.96979e-05
3.40816e-05
4.00141e-05
4.68718e-05
5.35643e-05
6.05001e-05
6.69409e-05
7.344e-05
7.95018e-05
8.54994e-05
9.12255e-05
9.68984e-05
0.00010247
0.000107938
0.000113467
0.000119063
0.0001247
0.000130437
0.000136248
0.00014215
0.000147992
0.000153013
0.000157103
0.000161163
0.000164512
0.000168285
0.000170337
0.000173777
0.000173298
0.000176351
0.000174227
0.000190733
0.000198707
0.000228143
0.000181259
0.000204788
0.000844051
0.000649583
0.000523813
0.000379669
0.000311449
0.000240445
0.000197489
0.000156454
0.000125923
9.86339e-05
7.70712e-05
5.90121e-05
4.55216e-05
3.6344e-05
3.25733e-05
3.31299e-05
3.68897e-05
4.28535e-05
4.9424e-05
5.66703e-05
6.37094e-05
7.09051e-05
7.77996e-05
8.46307e-05
9.12877e-05
9.7827e-05
0.000104287
0.000110732
0.000117102
0.000123567
0.000130093
0.000136805
0.000143551
0.000150381
0.000157178
0.000163002
0.000167764
0.000172465
0.000176463
0.000180848
0.000183502
0.000187507
0.000187532
0.000191002
0.000189265
0.000206312
0.000214529
0.000239001
0.00019257
0.000223806
0.000854217
0.000715872
0.00060135
0.000458242
0.000382508
0.000305484
0.00025559
0.000208682
0.000172833
0.000140045
0.000113392
8.93285e-05
7.04091e-05
5.4195e-05
4.34736e-05
3.75137e-05
3.68191e-05
4.00682e-05
4.53205e-05
5.21264e-05
5.93176e-05
6.69516e-05
7.45334e-05
8.21356e-05
8.96672e-05
9.71031e-05
0.000104575
0.00011193
0.000119374
0.000126751
0.000134251
0.000141889
0.000149757
0.000157605
0.000165459
0.000172161
0.000177654
0.000183039
0.000187738
0.000192756
0.000196046
0.000200616
0.000201169
0.000205013
0.000203589
0.000220998
0.000229282
0.000248126
0.000203776
0.000243309
0.000858685
0.000767261
0.000669709
0.000535042
0.000454757
0.000374068
0.000318327
0.000266282
0.000225669
0.000187906
0.00015699
0.000127627
0.000103794
8.17535e-05
6.46248e-05
5.07911e-05
4.31935e-05
4.12149e-05
4.31647e-05
4.81045e-05
5.45211e-05
6.2018e-05
6.99363e-05
7.81132e-05
8.64154e-05
9.47127e-05
0.000103134
0.000111482
0.000120083
0.000128539
0.000137041
0.000145734
0.000154623
0.000163731
0.000172764
0.000180435
0.000186732
0.00019286
0.000198324
0.000204014
0.000207984
0.000213129
0.00021424
0.000218419
0.000217195
0.000234868
0.000242968
0.000256126
0.000215106
0.000263369
0.000859833
0.000804563
0.000727111
0.00060682
0.000525831
0.000444013
0.000384105
0.000327928
0.000283234
0.000241067
0.00020647
0.00017262
0.000144739
0.000117379
9.53725e-05
7.46059e-05
5.94525e-05
4.97331e-05
4.60206e-05
4.68883e-05
5.08555e-05
5.70705e-05
6.4583e-05
7.28783e-05
8.16783e-05
9.06918e-05
9.99938e-05
0.000109334
0.000118971
0.000128689
0.000138505
0.000148204
0.000158318
0.000168494
0.000178971
0.000187742
0.000194933
0.000201876
0.000208194
0.000214604
0.000219318
0.000225058
0.000226766
0.000231255
0.000230107
0.000247967
0.000255649
0.000263669
0.00022674
0.00028402
0.000859249
0.00082972
0.000772845
0.000670897
0.0005934
0.000513082
0.000451076
0.000392137
0.000344245
0.0002984
0.000260645
0.000222991
0.000191815
0.000160107
0.00013381
0.00010778
8.63483e-05
6.88269e-05
5.74508e-05
5.18635e-05
5.10083e-05
5.39987e-05
5.96949e-05
6.71706e-05
7.58705e-05
8.52418e-05
9.52179e-05
0.000105459
0.000116108
0.000127002
0.000138102
0.000149505
0.000160468
0.000172097
0.000183748
0.00019398
0.000202165
0.000210013
0.000217292
0.000224488
0.000230029
0.0002364
0.000238759
0.000243548
0.000242373
0.0002603
0.000267459
0.000271332
0.000238854
0.000305287
0.000857936
0.000845228
0.000807186
0.000725457
0.000655164
0.000579166
0.000517263
0.000457275
0.000407287
0.000358701
0.000318362
0.000277614
0.000243647
0.000208575
0.000178749
0.000148373
0.000122249
9.86961e-05
8.00418e-05
6.64218e-05
5.85984e-05
5.59092e-05
5.75592e-05
6.25113e-05
6.99276e-05
7.88941e-05
8.90696e-05
9.99455e-05
0.000111475
0.000123499
0.000135846
0.000148699
0.000161564
0.000174309
0.000187235
0.000198748
0.00020831
0.000217166
0.000225542
0.000233602
0.000240076
0.000247129
0.000250216
0.00025532
0.000254063
0.000271839
0.000278575
0.000279314
0.000251758
0.000327179
0.000856481
0.000853665
0.000831215
0.00076959
0.00070926
0.000640355
0.000580625
0.000521593
0.000470814
0.00042064
0.000378418
0.000335375
0.000299088
0.000261436
0.000228823
0.000195096
0.00016514
0.000137248
0.000113142
9.25941e-05
7.67091e-05
6.65541e-05
6.16592e-05
6.16171e-05
6.57128e-05
7.28114e-05
8.22115e-05
9.31239e-05
0.000105189
0.000118164
0.000131706
0.000145937
0.000160517
0.000175206
0.000189401
0.000202032
0.000213036
0.0002232
0.000232839
0.000241851
0.000249395
0.000257197
0.000261115
0.000266573
0.000265229
0.00028264
0.000289147
0.000287811
0.00026564
0.000349687
0.000855185
0.000857357
0.000846572
0.000803287
0.000754499
0.000694901
0.00063942
0.000583206
0.000533205
0.000482765
0.000439518
0.00039509
0.000357029
0.000317533
0.0002827
0.000246577
0.000213617
0.000182477
0.000154353
0.000129002
0.000106591
8.85556e-05
7.56616e-05
6.82873e-05
6.63831e-05
6.92364e-05
7.60597e-05
8.57979e-05
9.7646e-05
0.000111135
0.000125662
0.000141209
0.000157308
0.000174203
0.00019027
0.000204049
0.000216059
0.00022789
0.000239051
0.000249105
0.000257894
0.000266525
0.000271412
0.000277293
0.000275907
0.000292806
0.00029931
0.000296993
0.000280579
0.00037277
0.000854165
0.000858194
0.00085517
0.000827335
0.000790439
0.000741443
0.000692168
0.000640388
0.000592785
0.00054355
0.000500281
0.000455485
0.000416319
0.000375724
0.000339251
0.000301452
0.000266355
0.000232806
0.000201826
0.000172895
0.000146263
0.000122189
0.000101665
8.59642e-05
7.59549e-05
7.17549e-05
7.32642e-05
7.96543e-05
8.97985e-05
0.000102872
0.000117863
0.000134481
0.000152039
0.000170648
0.000189426
0.00020489
0.000217855
0.000230792
0.000243891
0.000255192
0.000265451
0.000274996
0.000281037
0.00028744
0.000286119
0.000302437
0.000309196
0.000306983
0.000296564
0.00039634
0.000853431
0.000857561
0.000858935
0.000843125
0.000817332
0.00077924
0.000737747
0.000691673
0.000647972
0.000601422
0.000559282
0.000515201
0.000475739
0.000434833
0.000397367
0.000358554
0.000322014
0.000286895
0.000253927
0.00022251
0.000192812
0.000164978
0.000139065
0.000116022
9.74781e-05
8.4455e-05
7.78286e-05
7.77527e-05
8.36165e-05
9.44645e-05
0.000108815
0.000125898
0.000144654
0.000164891
0.000185872
0.000203932
0.000218244
0.00023246
0.00024672
0.000259902
0.000271915
0.000282452
0.000289892
0.000296939
0.000295872
0.000311619
0.000318933
0.000317842
0.000313508
0.000420243
0.00085294
0.000856353
0.000859589
0.000852412
0.000836038
0.000808288
0.000775318
0.000736049
0.000697366
0.000654933
0.000615076
0.00057285
0.000534008
0.000493629
0.000455906
0.000416743
0.000379447
0.000343366
0.000309333
0.000276172
0.000244665
0.000213833
0.000185084
0.00015686
0.000131735
0.000109789
9.38685e-05
8.44154e-05
8.25997e-05
8.81545e-05
9.97305e-05
0.000115985
0.00013528
0.000156858
0.000179829
0.000200249
0.000217034
0.000232732
0.000247873
0.000262652
0.000277059
0.000288678
0.000297853
0.000305676
0.000305142
0.000320404
0.000328629
0.000329567
0.000331258
0.000444231
0.000852647
0.00085512
0.000858641
0.000856888
0.000847856
0.000829191
0.00080462
0.000772954
0.000739939
0.000702765
0.000666333
0.000627048
0.000589829
0.000550841
0.000513679
0.000474868
0.000437526
0.000401061
0.000366668
0.000332502
0.000300138
0.000267311
0.000236658
0.000205406
0.000176319
0.000147664
0.000123488
0.000103474
9.15024e-05
8.78257e-05
9.31227e-05
0.000106031
0.000124437
0.00014664
0.000171299
0.000193848
0.000212708
0.000231517
0.000247653
0.000263664
0.000280114
0.000293385
0.000304773
0.000313479
0.000313875
0.000328794
0.00033838
0.000342068
0.000349602
0.000467968
0.000852484
0.000854178
0.000857081
0.00085817
0.000854331
0.000843035
0.000826069
0.000802095
0.000775186
0.000743922
0.000711927
0.000676536
0.000641927
0.000605216
0.000569469
0.000531754
0.00049511
0.000458861
0.000424749
0.000390185
0.000357735
0.000323834
0.000292272
0.000258823
0.000227965
0.000195117
0.000165456
0.000136457
0.000114432
9.83171e-05
9.3393e-05
9.87275e-05
0.000113445
0.000134709
0.000160307
0.000184776
0.0002055
0.000226876
0.000246115
0.000263562
0.000280431
0.000296199
0.000310511
0.0003201
0.000321982
0.000336755
0.000348163
0.000355198
0.000368286
0.000491061
0.000852431
0.000853569
0.000855539
0.000857584
0.000857062
0.000851228
0.000840587
0.0008237
0.000803048
0.000777843
0.000751002
0.000720274
0.000689147
0.000655549
0.000622082
0.000586228
0.000551039
0.000515654
0.000482429
0.000448072
0.00041614
0.000381878
0.000350392
0.000315573
0.000283913
0.000248797
0.000216409
0.000181387
0.000151902
0.000123529
0.000106454
9.86704e-05
0.000105152
0.00012234
0.00014724
0.000172995
0.0001955
0.000218561
0.000241265
0.000261798
0.000279379
0.000296561
0.000314273
0.000325164
0.000329348
0.000344246
0.000357743
0.000368761
0.000387015
0.000513141
0.000852285
0.000853239
0.000854507
0.000856224
0.000857355
0.000855287
0.000849429
0.000838539
0.00082382
0.000804509
0.000783053
0.000757519
0.000730568
0.000700773
0.000670395
0.000637161
0.000604167
0.000570328
0.000538582
0.000505056
0.000474165
0.000440212
0.000409405
0.000374307
0.000342564
0.00030605
0.000272969
0.000234811
0.000200609
0.000163318
0.000136306
0.000112187
0.000104815
0.000112377
0.00013325
0.000158843
0.000182577
0.00020756
0.000232035
0.000257224
0.000277186
0.000295427
0.000314856
0.000328182
0.000335884
0.000351131
0.00036681
0.000382448
0.000405447
0.000532351
0.000852198
0.000852835
0.000853875
0.000855083
0.000856365
0.000856541
0.000853992
0.000847779
0.00083818
0.000824318
0.000808068
0.000787894
0.00076555
0.000740083
0.000713428
0.00068353
0.000653413
0.000621806
0.000592104
0.000560056
0.000530683
0.000497697
0.000468042
0.000433454
0.000402485
0.000365619
0.000332304
0.000293308
0.000256872
0.000214602
0.00018044
0.000142227
0.000121578
0.00010978
0.000121048
0.000143438
0.000167073
0.000193421
0.000219926
0.000247404
0.0002728
0.000293919
0.000311884
0.000328792
0.000341054
0.000357138
0.000374945
0.00039585
0.000423424
0.000549515
0.000852143
0.000852567
0.000853253
0.00085423
0.000855345
0.000856021
0.00085565
0.000852773
0.000847171
0.00083804
0.000826505
0.00081141
0.000793817
0.00077296
0.000750477
0.00072445
0.000697829
0.00066909
0.000641953
0.000612023
0.000584616
0.000553247
0.000525147
0.000491801
0.000462067
0.000425998
0.000393282
0.000353958
0.000317485
0.000273726
0.00023442
0.000187578
0.000157055
0.000120301
0.000117786
0.000129727
0.000150267
0.000176488
0.000204491
0.000233943
0.000262595
0.000290271
0.00030876
0.000326339
0.0003436
0.00036181
0.000381612
0.000408443
0.000440832
0.000564887
0.000852103
0.000852391
0.00085282
0.00085348
0.000854352
0.000855273
0.000855452
0.00085475
0.000852047
0.000846716
0.000839136
0.000828534
0.0008155
0.000799254
0.000781135
0.000759344
0.00073661
0.000711336
0.000687202
0.000659983
0.000634955
0.000605823
0.000579649
0.000548227
0.000520089
0.000485695
0.000454159
0.000416006
0.00037949
0.000337095
0.000294317
0.000245705
0.000206684
0.000147206
0.000133554
0.000122171
0.000135263
0.000158174
0.000185993
0.000217257
0.000247374
0.000280262
0.000304868
0.000323095
0.000341911
0.000364553
0.000386179
0.000419597
0.000457242
0.000579519
0.000852073
0.000852272
0.000852532
0.000852937
0.000853522
0.000854303
0.000854868
0.000854934
0.000853953
0.000851474
0.000846955
0.000840135
0.000831121
0.000819201
0.000805353
0.000787922
0.000769292
0.000747839
0.000727108
0.000703085
0.000680799
0.000654464
0.000630563
0.000601682
0.000575468
0.000543493
0.000513527
0.000477681
0.000441874
0.00040162
0.000357579
0.000311446
0.000265033
0.000193672
0.000167013
0.000129591
0.000129955
0.000142363
0.000166041
0.000197213
0.000229413
0.000263129
0.000295832
0.000319617
0.000336561
0.000364836
0.000388042
0.000428676
0.000472661
0.000590422
0.000852049
0.000852188
0.000852342
0.00085257
0.000852912
0.000853443
0.000854012
0.000854417
0.000854393
0.000853273
0.00085113
0.000847274
0.000841521
0.000833401
0.000823451
0.000810247
0.000795699
0.000778257
0.000761087
0.00074069
0.000721413
0.000698323
0.000677018
0.000651198
0.000627241
0.000598276
0.000570278
0.000537485
0.000503184
0.000465819
0.00042269
0.000378441
0.000329634
0.000257933
0.000216552
0.000156444
0.000143811
0.000135813
0.000148668
0.000175469
0.000207855
0.000243441
0.00027848
0.000312411
0.000332036
0.000360028
0.000386993
0.000435112
0.000486904
0.000599264
0.00085203
0.000852125
0.000852215
0.000852328
0.000852498
0.000852794
0.000853207
0.00085362
0.000853958
0.000853726
0.00085294
0.000850821
0.000847733
0.00084275
0.000836082
0.000826739
0.000816001
0.000802532
0.000788944
0.000772307
0.000756294
0.000736734
0.000718298
0.000695931
0.000674565
0.000649036
0.000623458
0.000594133
0.000562264
0.000527857
0.000487696
0.000444369
0.000396955
0.000333734
0.00027855
0.000207034
0.000179287
0.000148007
0.000142708
0.000156625
0.000184369
0.000220132
0.000256762
0.000295976
0.000326003
0.000351852
0.00038354
0.000437741
0.000498903
0.000606561
0.000852015
0.000852077
0.000852125
0.000852169
0.00085223
0.000852352
0.000852582
0.000852865
0.000853229
0.000853363
0.000853284
0.000852441
0.000850925
0.000848052
0.000844142
0.000838131
0.000830695
0.000820945
0.000810762
0.000797866
0.000785102
0.000769296
0.000753891
0.000735213
0.000716747
0.000694907
0.000672229
0.000646568
0.000617814
0.000586759
0.000550487
0.000509706
0.000464151
0.000411284
0.000349897
0.000278648
0.000235131
0.000183993
0.000160415
0.000149104
0.000163694
0.000194607
0.000231809
0.000271956
0.000311145
0.000343233
0.000376406
0.000434306
0.000506736
0.00061317
0.000852004
0.000852039
0.00085206
0.000852062
0.000852059
0.000852071
0.000852152
0.000852282
0.000852528
0.000852726
0.000852908
0.000852733
0.000852203
0.000850873
0.000848684
0.000845166
0.000840544
0.000834106
0.000826947
0.000817567
0.000807927
0.000795766
0.000783585
0.000768612
0.000753275
0.000735209
0.000715734
0.000693967
0.000669015
0.000641482
0.000609716
0.000572538
0.000530836
0.000482246
0.000426136
0.000358825
0.000306219
0.000245425
0.000204962
0.000164529
0.000157153
0.000172374
0.000204295
0.000245605
0.000285716
0.0003292
0.000366727
0.000425982
0.000509598
0.000619399
0.000851995
0.00085201
0.000852011
0.000851988
0.000851949
0.000851899
0.00085188
0.000851888
0.00085199
0.000852117
0.000852312
0.000852396
0.000852352
0.000851919
0.000850972
0.000849241
0.000846393
0.000842737
0.000838167
0.000831924
0.000825104
0.000816383
0.000807309
0.000796
0.000783717
0.000769506
0.000753631
0.000735685
0.000714945
0.000691222
0.000664254
0.000631466
0.000594708
0.000550114
0.000500005
0.000440657
0.00038498
0.000325696
0.000272437
0.000207122
0.000179432
0.000164451
0.000179917
0.000216316
0.000258252
0.0003042
0.000351606
0.000410566
0.000505512
0.000623419
0.000851987
0.000851987
0.000851973
0.000851936
0.000851876
0.000851795
0.000851717
0.000851646
0.000851632
0.000851657
0.000851764
0.000851883
0.000852001
0.000851997
0.00085175
0.000851123
0.000849828
0.000847834
0.000845105
0.000841723
0.000837236
0.000831662
0.000825376
0.000817291
0.00080832
0.000797673
0.000785495
0.000771332
0.000754958
0.000735304
0.000713269
0.000685299
0.000654227
0.000614108
0.000570894
0.000518101
0.00046698
0.000411628
0.000353731
0.000277931
0.000232424
0.000182075
0.000173392
0.000190963
0.000227662
0.000274972
0.000326324
0.000382947
0.000493275
0.000611659
0.000851982
0.000851969
0.000851945
0.000851898
0.000851828
0.000851732
0.000851625
0.00085151
0.000851422
0.000851362
0.000851367
0.000851426
0.000851539
0.000851673
0.000851745
0.000851707
0.00085135
0.000850614
0.000849363
0.000847491
0.000845116
0.000842309
0.000838358
0.000833118
0.000827186
0.000819886
0.000811264
0.000800765
0.00078868
0.000773244
0.000756138
0.00073323
0.000708076
0.000673599
0.000636343
0.000592077
0.000546395
0.00049595
0.000440082
0.00036909
0.000310925
0.000230881
0.000200318
0.000181502
0.000201741
0.000241949
0.000296811
0.00035372
0.000472673
0.000576969
0.000851977
0.000851956
0.000851923
0.000851871
0.000851795
0.000851695
0.000851575
0.000851442
0.000851313
0.000851199
0.000851126
0.00085111
0.000851157
0.000851285
0.000851445
0.000851658
0.000851775
0.000851796
0.000851498
0.000851044
0.000849715
0.000848845
0.000847095
0.000844222
0.000840908
0.000836497
0.000831192
0.000824112
0.000816041
0.000804805
0.000792463
0.00077475
0.000755364
0.000727437
0.000696114
0.000659471
0.000621952
0.000576499
0.000524546
0.000467471
0.00040316
0.000310683
0.000262785
0.000199741
0.000194746
0.000214936
0.000261371
0.00032543
0.000423845
0.00053002
0.000851974
0.000851945
0.000851907
0.000851852
0.000851775
0.000851674
0.000851552
0.000851413
0.000851268
0.000851128
0.000851008
0.000850935
0.000850914
0.000850987
0.000851126
0.000851402
0.000851695
0.000852102
0.000852328
0.000852711
0.000852527
0.000852521
0.000852261
0.000851458
0.000850262
0.000848235
0.000845787
0.000841768
0.00083728
0.000830042
0.000822126
0.00080958
0.000795636
0.000774586
0.000749614
0.000720058
0.000689955
0.000652635
0.000607407
0.000556629
0.000500003
0.000415989
0.000347486
0.000257998
0.000220003
0.000200785
0.000230286
0.000291508
0.000370663
0.000484816
0.000851971
0.000851938
0.000851895
0.000851838
0.000851762
0.000851664
0.000851546
0.00085141
0.000851262
0.000851114
0.000850975
0.000850869
0.0008508
0.00085082
0.000850907
0.000851163
0.000851478
0.000852033
0.000852496
0.000853314
0.000853762
0.00085471
0.000855102
0.000855541
0.00085614
0.000855981
0.000855776
0.000854447
0.000852934
0.000849305
0.000845327
0.000837689
0.000828801
0.000814412
0.000796108
0.000773461
0.000750156
0.000720778
0.000684918
0.000640831
0.000588905
0.000527318
0.000454511
0.000351691
0.000286355
0.000224727
0.000214808
0.000256602
0.000318292
0.000439518
0.000851969
0.000851932
0.000851887
0.00085183
0.000851756
0.000851663
0.000851551
0.000851421
0.000851279
0.000851133
0.000850989
0.000850871
0.000850781
0.000850771
0.000850815
0.000851026
0.000851305
0.000851886
0.000852413
0.000853442
0.000854085
0.000855804
0.000856592
0.000857635
0.000859402
0.00086067
0.000862133
0.000862866
0.000863808
0.000863216
0.000862576
0.000859341
0.000855052
0.000846755
0.000835059
0.000819203
0.000802327
0.000780465
0.000753326
0.000718623
0.000675605
0.000624672
0.00056434
0.000468837
0.000391008
0.000289646
0.000243076
0.000237248
0.000271895
0.000378603
0.000851968
0.000851928
0.000851882
0.000851826
0.000851755
0.000851667
0.000851563
0.000851443
0.00085131
0.000851173
0.000851036
0.00085092
0.000850823
0.000850795
0.000850811
0.000850996
0.000851245
0.000851797
0.000852317
0.000853391
0.000854142
0.000856018
0.000857436
0.00085866
0.000860921
0.000863207
0.000865795
0.000868044
0.000870755
0.000872611
0.000874642
0.000875103
0.000874849
0.000871874
0.000866324
0.000856958
0.000846196
0.000831411
0.000812275
0.000786983
0.000754417
0.000714999
0.000663593
0.000590786
0.000516955
0.00039304
0.000320924
0.000253027
0.000250264
0.000304854
0.000851967
0.000851926
0.00085188
0.000851825
0.000851757
0.000851676
0.00085158
0.000851471
0.00085135
0.000851226
0.0008511
0.000850993
0.000850903
0.000850874
0.000850886
0.000851046
0.00085127
0.000851779
0.00085231
0.000853325
0.000854195
0.000855892
0.000857817
0.00085911
0.000861532
0.000864405
0.000867648
0.000870909
0.000874785
0.000878464
0.000882482
0.000885807
0.000888896
0.000890363
0.000890192
0.000886737
0.000881644
0.000873442
0.0008617
0.000845225
0.000822867
0.000794014
0.000755433
0.000706868
0.000639538
0.000528321
0.000443549
0.000320618
0.000273683
0.000267443
0.000851967
0.000851925
0.00085188
0.000851826
0.000851763
0.000851689
0.000851602
0.000851504
0.000851397
0.000851285
0.000851176
0.00085108
0.000851005
0.000850981
0.000851005
0.000851151
0.000851385
0.000851842
0.000852392
0.00085329
0.000854282
0.000855761
0.000857971
0.000859277
0.000861718
0.000864848
0.000868434
0.000872271
0.000876847
0.000881643
0.000887152
0.000892507
0.000898096
0.000903073
0.000907324
0.000908952
0.000908881
0.000906604
0.000901623
0.000893155
0.000880169
0.000861773
0.000835807
0.000803474
0.000754949
0.000669355
0.000592862
0.000440888
0.000359478
0.000276523
0.000851967
0.000851926
0.000851881
0.000851831
0.000851772
0.000851705
0.000851627
0.00085154
0.000851447
0.00085135
0.000851257
0.000851176
0.00085112
0.000851104
0.000851148
0.000851286
0.000851545
0.000851957
0.00085255
0.000853337
0.00085443
0.000855682
0.000858
0.000859367
0.000861744
0.000864889
0.000868651
0.000872752
0.000877668
0.000883113
0.000889414
0.000896245
0.000903653
0.000911011
0.00091863
0.000924365
0.00092849
0.000931287
0.000932267
0.000930869
0.000926263
0.000917613
0.000903579
0.000883406
0.000853339
0.000807356
0.000733655
0.000606481
0.000504792
0.000354543
0.000851967
0.000851928
0.000851885
0.000851838
0.000851784
0.000851723
0.000851655
0.000851579
0.000851499
0.000851417
0.000851342
0.000851276
0.000851241
0.000851236
0.000851303
0.000851438
0.000851726
0.000852108
0.000852737
0.000853452
0.000854592
0.000855736
0.000858
0.000859484
0.000861741
0.000864802
0.000868595
0.000872766
0.000877783
0.000883516
0.000890231
0.000897746
0.000906377
0.000915634
0.000925438
0.000933989
0.00094134
0.000948231
0.000954171
0.000958755
0.00096139
0.000961337
0.000957779
0.000949244
0.000934243
0.000911338
0.000866777
0.000780456
0.000687978
0.000506665
0.000851968
0.000851931
0.00085189
0.000851846
0.000851798
0.000851744
0.000851685
0.00085162
0.000851554
0.000851487
0.000851429
0.000851379
0.000851364
0.000851373
0.000851462
0.000851602
0.000851914
0.000852283
0.000852933
0.00085361
0.000854763
0.000855841
0.000858023
0.000859603
0.000861732
0.000864671
0.000868432
0.000872559
0.000877533
0.000883317
0.00089015
0.000897978
0.000907067
0.000917358
0.000929026
0.000939661
0.000949027
0.000958489
0.000968083
0.000977452
0.000986044
0.000993195
0.000998412
0.00100044
0.000998336
0.000990364
0.000971344
0.0009312
0.000858936
0.000709152
0.000851969
0.000851934
0.000851897
0.000851857
0.000851814
0.000851767
0.000851717
0.000851663
0.000851611
0.000851558
0.000851517
0.000851484
0.000851488
0.000851513
0.000851622
0.000851773
0.000852102