/*--------------------------------*- C++ -*----------------------------------*\
  =========                 |
  \\      /  F ield         | OpenFOAM: The Open Source CFD Toolbox
   \\    /   O peration     | Website:  https://openfoam.org
    \\  /    A nd           | Version:  13
     \\/     M anipulation  |
\*---------------------------------------------------------------------------*/
FoamFile
{
    format      ascii;
    class       volScalarField;
    location    "753";
    object      p;
}
// * * * * * * * * * * * * * * * * * * * * * * * * * * * * * * * * * * * * * //

dimensions      [0 2 -2 0 0 0 0];

internalField   nonuniform List<scalar> 
78000
(
65.2257
40.7366
39.2039
39.3892
38.9122
38.695
38.6351
38.5918
38.5812
38.6065
38.6735
38.7751
38.9273
39.1262
39.3815
39.7048
40.0971
40.5482
41.058
41.6285
42.2614
42.9574
43.7191
44.5464
45.4404
46.3998
47.4218
48.5019
49.6309
50.7983
51.9871
53.1794
54.3519
55.4816
56.5498
57.3969
58.0748
58.6581
59.2267
59.6464
60.1556
60.3717
60.9279
60.8386
61.6838
61.0251
62.8402
60.8231
64.2371
51.6898
54.2127
40.2608
39.2848
39.4109
38.924
38.7028
38.6407
38.5962
38.5846
38.6094
38.6759
38.7773
38.9292
39.128
39.3831
39.7063
40.0986
40.5497
41.0595
41.63
42.2629
42.959
43.7208
44.5481
45.4422
46.4016
47.4238
48.5039
49.633
50.8005
51.9893
53.1816
54.354
55.4836
56.5517
57.3986
58.0763
58.6594
59.2279
59.6474
60.1565
60.3725
60.9286
60.8393
61.6841
61.0241
62.8379
60.8066
64.2257
52.1295
49.377
40.5935
39.3709
39.4297
38.9437
38.718
38.6519
38.6053
38.5915
38.6154
38.6808
38.7817
38.933
39.1314
39.3862
39.7093
40.1014
40.5524
41.0621
41.6327
42.2656
42.9618
43.7237
44.5511
45.4454
46.405
47.4273
48.5076
49.6369
50.8045
51.9934
53.1857
54.358
55.4875
56.5554
57.402
58.0794
58.6622
59.2305
59.6495
60.1586
60.3738
60.9304
60.8399
61.686
61.0203
62.8357
60.7684
64.2152
52.5994
49.1966
41.2401
39.4469
39.4469
38.9695
38.7386
38.6676
38.6186
38.6019
38.6245
38.6881
38.7883
38.9387
39.1365
39.3909
39.7136
40.1055
40.5564
41.066
41.6365
42.2696
42.9658
43.7278
44.5555
45.45
46.4098
47.4325
48.5131
49.6427
50.8105
51.9997
53.1921
54.3645
55.4938
56.5615
57.4077
58.0848
58.667
59.235
59.6532
60.1625
60.3763
60.9339
60.8409
61.6893
61.0132
62.8319
60.7054
64.2
53.0168
49.2542
41.4933
39.5109
39.4723
38.9977
38.7593
38.6843
38.6333
38.614
38.6352
38.6968
38.7963
38.9456
39.1427
39.3965
39.7187
40.1103
40.561
41.0705
41.641
42.2741
42.9705
43.7326
44.5605
45.4553
46.4155
47.4385
48.5196
49.6496
50.8179
52.0074
53.2002
54.3727
55.5021
56.5696
57.4155
58.0923
58.6738
59.2415
59.6587
60.1681
60.3801
60.9391
60.8425
61.694
61.0033
62.8257
60.6294
64.1794
53.3952
48.6112
41.5427
39.5925
39.5016
39.0238
38.777
38.6995
38.6472
38.6261
38.6463
38.7062
38.8049
38.9531
39.1495
39.4026
39.7244
40.1155
40.566
41.0754
41.6458
42.2789
42.9753
43.7377
44.5658
45.4609
46.4214
47.4449
48.5264
49.657
50.8258
52.0158
53.209
54.3819
55.5114
56.5789
57.4245
58.1009
58.6819
59.2493
59.6654
60.1749
60.385
60.9453
60.8448
61.6991
60.9923
62.8174
60.5549
64.1563
53.7584
47.7817
41.6019
39.6897
39.5299
39.0476
38.7927
38.7125
38.6587
38.6371
38.6567
38.7155
38.8136
38.9608
39.1566
39.409
39.7302
40.121
40.5712
41.0804
41.6507
42.2838
42.9803
43.7428
44.5711
45.4665
46.4274
47.4513
48.5333
49.6645
50.8339
52.0245
53.2182
54.3915
55.5212
56.5888
57.4342
58.1103
58.6907
59.2577
59.6729
60.1823
60.3907
60.952
60.8476
61.7041
60.9817
62.8074
60.4881
64.1328
54.1159
47.0408
41.6676
39.781
39.557
39.0715
38.8091
38.7237
38.6673
38.6459
38.6656
38.724
38.8218
38.9683
39.1635
39.4154
39.7361
40.1265
40.5764
41.0854
41.6556
42.2886
42.9852
43.7478
44.5763
45.472
46.4333
47.4576
48.5402
49.6719
50.8419
52.0332
53.2275
54.4014
55.5314
56.5991
57.4445
58.1203
58.7002
59.2668
59.6812
60.1902
60.3971
60.9591
60.8508
61.7086
60.9722
62.7958
60.431
64.109
54.4702
46.4015
41.7061
39.8597
39.5838
39.0959
38.8272
38.7345
38.6742
38.6526
38.6723
38.7309
38.8289
38.9751
39.1701
39.4215
39.7418
40.1318
40.5814
41.0902
41.6603
42.2932
42.9898
43.7525
44.5812
45.4771
46.4388
47.4636
48.5467
49.6791
50.8498
52.0418
53.2368
54.4113
55.5418
56.6097
57.4551
58.1307
58.7102
59.2763
59.69
60.1986
60.4042
60.9663
60.8547
61.7124
60.9644
62.7829
60.3848
64.0847
54.823
45.8275
41.7134
39.9284
39.6096
39.1201
38.8467
38.7458
38.6811
38.658
38.6769
38.7359
38.8343
38.9807
39.1757
39.4269
39.7469
40.1366
40.586
41.0947
41.6647
42.2974
42.9941
43.7567
44.5856
45.4818
46.4438
47.469
48.5527
49.6857
50.8572
52.0501
53.2459
54.4211
55.5523
56.6206
57.4661
58.1416
58.7207
59.2862
59.6994
60.2072
60.4121
60.9734
60.8592
61.7156
60.9586
62.7687
60.3505
64.0594
55.1761
45.301
41.6976
39.9885
39.6335
39.1434
38.8666
38.7577
38.6889
38.6634
38.6806
38.7392
38.8379
38.9845
39.1799
39.4313
39.7511
40.1407
40.59
41.0985
41.6684
42.301
42.9976
43.7603
44.5893
45.4856
46.4479
47.4737
48.5578
49.6916
50.8639
52.0577
53.2545
54.4306
55.5626
56.6314
57.4773
58.1527
58.7317
59.2966
59.7095
60.2162
60.4207
60.9806
60.8646
61.7181
60.9553
62.7534
60.3294
64.0331
55.5309
44.8137
41.6655
40.0404
39.655
39.1656
38.8864
38.7699
38.6973
38.6692
38.6845
38.7419
38.8401
38.9867
39.1824
39.4342
39.754
40.1436
40.5929
41.1013
41.6711
42.3036
43.0003
43.7628
44.592
45.4884
46.451
47.4772
48.5619
49.6963
50.8695
52.0644
53.2623
54.4396
55.5726
56.6422
57.4886
58.1641
58.743
59.3073
59.7202
60.2255
60.43
60.9876
60.8711
61.7198
60.9547
62.7373
60.3226
64.0058
55.8887
44.3588
41.6208
40.0838
39.6737
39.1868
38.9059
38.7822
38.7059
38.6753
38.6888
38.7447
38.8419
38.9879
39.1834
39.4354
39.7553
40.145
40.5946
41.1029
41.6726
42.305
43.0016
43.7641
44.5933
45.4899
46.4527
47.4792
48.5645
49.6997
50.8738
52.0698
53.269
54.4477
55.582
56.6525
57.4999
58.1756
58.7547
59.3183
59.7314
60.235
60.4403
60.9945
60.8789
61.7206
60.9574
62.7206
60.3305
63.9779
56.2503
43.9311
41.5661
40.1186
39.6891
39.2067
38.9246
38.7942
38.7144
38.6816
38.6933
38.7478
38.8439
38.9888
39.1836
39.4353
39.7549
40.1447
40.5945
41.1029
41.6726
42.3049
43.0014
43.7638
44.593
45.4895
46.4526
47.4793
48.5651
49.7011
50.8763
52.0735
53.2743
54.4545
55.5905
56.6623
57.5109
58.1871
58.7667
59.3296
59.7433
60.2448
60.4514
61.0013
60.8881
61.7205
60.964
62.7035
60.3531
63.9503
56.6166
43.5274
41.5027
40.1449
39.7009
39.2252
38.9426
38.806
38.7228
38.6877
38.6979
38.751
38.8461
38.9899
39.1836
39.4345
39.7533
40.1428
40.5925
41.101
41.6705
42.3027
42.9991
43.7613
44.5904
45.487
46.4501
47.4771
48.5634
49.7001
50.8764
52.075
53.2775
54.4597
55.5978
56.6712
57.5214
58.1983
58.7787
59.341
59.7557
60.2549
60.4636
61.0079
60.8989
61.7195
60.975
62.6864
60.3902
63.9241
56.9895
43.1462
41.4308
40.1626
39.7087
39.242
38.9594
38.8172
38.7309
38.6937
38.7023
38.7541
38.8483
38.991
39.1838
39.4337
39.7512
40.1398
40.5889
41.097
41.6663
42.2982
42.9944
43.7563
44.5852
45.4816
46.4447
47.4719
48.5586
49.6962
50.8735
52.0737
53.2781
54.4625
55.6031
56.6787
57.531
58.2091
58.7906
59.3524
59.7686
60.2651
60.4767
61.0144
60.9117
61.7179
60.991
62.6697
60.4423
63.9008
57.3732
42.7869
41.35
40.1716
39.7122
39.2567
38.975
38.8278
38.7386
38.6993
38.7064
38.757
38.8503
38.9921
39.1839
39.4328
39.749
40.1363
40.5841
41.0914
41.6599
42.2912
42.9869
43.7484
44.5769
45.4729
46.4359
47.4631
48.5501
49.6884
50.8668
52.0687
53.2754
54.4623
55.606
56.6841
57.5394
58.2191
58.8022
59.3637
59.7819
60.2754
60.4908
61.0207
60.9266
61.7157
61.0128
62.654
60.51
63.8824
57.7723
42.4493
41.2601
40.1716
39.7113
39.2691
38.9889
38.8375
38.7457
38.7045
38.7101
38.7595
38.852
38.9928
39.1838
39.4318
39.7469
40.1328
40.579
41.0847
41.6518
42.2819
42.9765
43.7371
44.5649
45.4603
46.4228
47.4498
48.537
49.6759
50.8555
52.0593
53.2685
54.4584
55.6057
56.6869
57.5458
58.2277
58.813
59.3745
59.7953
60.2857
60.506
61.0269
60.9438
61.7134
61.0411
62.6399
60.5948
63.871
58.1886
42.1332
41.1607
40.1628
39.7056
39.2785
39.0008
38.8461
38.752
38.709
38.7132
38.7616
38.8532
38.9932
39.1834
39.4305
39.7445
40.1292
40.5738
41.0777
41.6426
42.2707
42.9635
43.7226
44.549
45.4432
46.4048
47.4313
48.5184
49.6577
50.8385
52.0441
53.2562
54.4497
55.6012
56.686
57.5494
58.2345
58.8226
59.3844
59.8087
60.2959
60.5221
61.0331
60.9637
61.7112
61.0768
62.6285
60.6986
63.8694
58.6238
41.8381
41.052
40.1449
39.695
39.2847
39.0106
38.8533
38.7573
38.7128
38.7157
38.763
38.8538
38.9929
39.1824
39.4286
39.7416
40.1251
40.5683
41.0703
41.6331
42.2586
42.9487
43.7051
44.5292
45.4215
46.3815
47.4068
48.4932
49.6326
50.8144
52.0221
53.2372
54.4347
55.5914
56.6806
57.5495
58.2385
58.8303
59.3931
59.8217
60.3056
60.5391
61.0392
60.9864
61.7097
61.1209
62.6208
60.8235
63.8802
59.0796
41.5631
40.9347
40.118
39.6792
39.2872
39.0178
38.8589
38.7613
38.7156
38.7173
38.7636
38.8537
38.992
39.1806
39.426
39.738
40.1203
40.5621
41.0624
41.623
42.2458
42.9328
43.6857
44.5063
45.3953
46.3526
47.3756
48.4607
49.5996
50.782
51.9915
53.21
54.412
55.5746
56.6692
57.5448
58.2387
58.8353
59.3998
59.8336
60.3147
60.5567
61.0454
61.0122
61.7094
61.1743
62.6182
60.9716
63.9066
59.5578
41.3073
40.8099
40.0819
39.658
39.2856
39.0221
38.8625
38.7639
38.7171
38.7179
38.7632
38.8526
38.9901
39.178
39.4224
39.7335
40.1145
40.555
41.0536
41.612
42.2322
42.9159
43.6649
44.4811
45.3655
46.3185
47.3379
48.4202
49.5575
50.7398
51.9509
53.1726
54.3796
55.549
56.6501
57.534
58.2341
58.8365
59.4035
59.8438
60.3226
60.5746
61.0516
61.0412
61.7112
61.238
62.6225
61.1449
63.9514
60.0596
41.0692
40.6788
40.0368
39.6314
39.2794
39.0231
38.8637
38.7648
38.7172
38.7171
38.7616
38.8504
38.987
39.1742
39.4177
39.7278
40.1076
40.5466
41.0435
41.5998
42.2173
42.8978
43.6428
44.4542
45.3331
46.2802
47.2941
48.3717
49.5057
50.6866
51.8984
53.1232
54.3355
55.5124
56.6211
57.5151
58.2231
58.8327
59.4029
59.8514
60.3288
60.5924
61.0579
61.0737
61.7158
61.313
62.6356
61.345
64.0173
60.5861
40.8474
40.5431
39.9829
39.599
39.2682
39.0206
38.8624
38.7636
38.7156
38.7148
38.7586
38.8468
38.9827
39.1691
39.4117
39.7207
40.0992
40.5368
41.0318
41.5858
42.2007
42.8778
43.6188
44.4253
45.2984
46.2387
47.2453
48.316
49.4444
50.6217
51.8326
53.0597
54.2773
55.4624
56.5796
57.4856
58.2037
58.8221
59.3965
59.855
60.3323
60.6093
61.0642
61.1096
61.7244
61.4
62.6597
61.5726
64.1066
61.1365
40.6403
40.4041
39.9205
39.5609
39.2518
39.0141
38.8582
38.7601
38.712
38.7108
38.754
38.8415
38.9767
39.1624
39.4041
39.712
40.0892
40.5251
41.0182
41.5699
42.1819
42.8556
43.5925
44.394
45.261
46.1941
47.1925
48.2543
49.3746
50.5453
51.7527
52.9802
54.2023
55.396
56.5228
57.4429
58.1732
58.8023
59.3828
59.8533
60.3317
60.6243
61.0707
61.1487
61.738
61.4996
62.6972
61.8277
64.2208
61.7072
40.4462
40.2633
39.8501
39.5168
39.2298
39.0033
38.8508
38.754
38.7062
38.7046
38.7474
38.8345
38.9689
39.1538
39.3946
39.7013
40.077
40.5112
41.0023
41.5515
42.1605
42.8305
43.5631
44.3594
45.2203
46.1459
47.1357
48.1876
49.2975
50.4585
51.6591
52.8837
54.1084
55.3102
56.4472
57.3835
58.1285
58.77
59.3593
59.8443
60.3251
60.6364
61.0768
61.1905
61.7577
61.6117
62.7505
62.1087
64.3602
62.2913
40.2635
40.1217
39.7722
39.4669
39.2019
38.9878
38.8397
38.745
38.6978
38.6962
38.7386
38.8252
38.959
39.1431
39.3829
39.6884
40.0626
40.4949
40.9837
41.5302
42.1361
42.8022
43.5302
44.3209
45.1754
46.0933
47.0742
48.1155
49.2139
50.3629
51.553
52.7707
53.9942
55.202
56.3491
57.3035
58.0658
58.7217
59.3226
59.8249
60.3108
60.6438
61.0816
61.2342
61.7844
61.7362
62.8211
62.4123
64.5236
62.878
40.0907
39.9804
39.6875
39.4109
39.1679
38.9672
38.8246
38.7326
38.6866
38.6852
38.7274
38.8136
38.9467
39.13
39.3687
39.6729
40.0454
40.4757
40.9622
41.5058
42.1081
42.7701
43.4932
44.2781
45.1257
46.0355
47.007
48.0374
49.1236
50.259
51.436
52.6426
53.8601
55.0699
56.2249
57.1987
57.9805
58.6533
59.2687
59.7914
60.2868
60.6449
61.0828
61.2787
61.8187
61.8718
62.9102
62.7328
64.707
63.4546
39.9264
39.84
39.5966
39.3489
39.1277
38.9412
38.8053
38.7166
38.6722
38.6712
38.7134
38.7992
38.9317
39.1141
39.3517
39.6544
40.0252
40.4533
40.9371
41.4776
42.0762
42.7337
43.4516
44.2302
45.0704
45.9716
46.9332
47.9522
49.0255
50.1467
51.3087
52.5009
53.7075
54.9139
56.0726
57.0646
57.8672
58.5595
59.1931
59.7393
60.2493
60.6365
61.0784
61.3223
61.86
62.0162
63.017
63.0626
64.9029
64.008
39.7691
39.701
39.5002
39.2811
39.0812
38.9095
38.7812
38.6966
38.6543
38.6541
38.6963
38.7819
38.9137
39.0952
39.3315
39.6327
40.0014
40.4271
40.9081
41.4452
42.0397
42.6925
43.4046
44.1765
45.0089
45.901
46.852
47.859
48.9187
50.0248
51.1705
52.3462
53.5379
54.7353
55.892
56.8979
57.7205
58.4343
59.0896
59.6633
60.1931
60.6135
61.0663
61.3624
61.9061
62.1658
63.1389
63.3915
65.1008
64.5219
39.6176
39.5635
39.399
39.2074
39.0282
38.8717
38.7519
38.6722
38.6324
38.6333
38.6758
38.7611
38.8923
39.0728
39.3078
39.6072
39.9738
40.3969
40.8747
41.4081
41.9982
42.6457
43.3517
44.1164
44.9404
45.8227
46.7626
47.7568
48.8021
49.8924
51.0207
52.1784
53.3521
54.5354
55.685
56.697
57.5353
58.2718
58.9517
59.5567
60.1121
60.5696
61.0429
61.3951
61.9524
62.3155
63.2702
63.707
65.2882
64.9762
39.4709
39.4275
39.2936
39.1279
38.9688
38.8276
38.7171
38.6428
38.6062
38.6086
38.6515
38.7367
38.8672
39.0466
39.2802
39.5777
39.9419
40.362
40.8364
41.3657
41.951
42.5928
43.2921
44.0491
44.8641
45.7361
46.6639
47.6447
48.6746
49.7483
50.8581
51.9966
53.1506
54.3155
55.4535
56.4628
57.3094
58.0667
58.7724
59.4114
59.9988
60.498
61.0012
61.4142
61.9938
62.4575
63.4026
63.9945
65.4492
65.3465
39.3278
39.2928
39.1843
39.0428
38.9029
38.7768
38.6762
38.6081
38.5751
38.5794
38.6231
38.7082
38.838
39.0163
39.2482
39.5436
39.9051
40.322
40.7927
41.3174
41.8974
42.5332
43.2253
43.9739
44.7792
45.6401
46.5551
47.5216
48.5353
49.5913
50.6818
51.7998
52.9328
54.0766
55.1997
56.198
57.0438
57.8165
58.5459
59.2196
59.8439
60.3909
60.9321
61.4102
62.0233
62.5798
63.5241
64.238
65.5635
65.6061
39.1874
39.1591
39.0716
38.9521
38.8305
38.7192
38.629
38.5676
38.5387
38.5453
38.5899
38.6752
38.8043
38.9814
39.2115
39.5046
39.8631
40.2765
40.7429
41.2628
41.837
42.466
43.1503
43.89
44.6848
45.5338
46.4353
47.3865
48.3831
49.4203
50.4905
51.5868
52.6975
53.8189
54.9244
55.9058
56.7423
57.5222
58.2692
58.9742
59.6373
60.2368
60.825
61.3704
62.0283
62.6689
63.619
64.4188
65.6081
65.7254
39.0487
39.0259
38.9556
38.8559
38.7515
38.6545
38.5749
38.5207
38.4965
38.5058
38.5516
38.6371
38.7657
38.9414
39.1696
39.4602
39.8153
40.2247
40.6865
41.201
41.7689
42.3906
43.0664
43.7964
44.58
45.4163
46.3033
47.2382
48.2168
49.2341
50.2829
51.3563
52.4435
53.541
54.6269
55.5881
56.4092
57.1874
57.9426
58.671
59.3704
60.0228
60.6652
61.2804
61.9889
62.7088
63.6659
64.516
65.5595
65.6789
38.9109
38.8925
38.8364
38.7542
38.6658
38.5825
38.5136
38.4669
38.4477
38.4601
38.5075
38.5933
38.7214
38.8959
39.122
39.4097
39.7612
40.1663
40.623
41.1315
41.6924
42.3062
42.9728
43.6923
44.4638
45.2865
46.158
47.0757
48.0352
49.0314
50.0577
51.1069
52.1693
53.2413
54.3054
55.2442
56.0463
56.8157
57.5696
58.3102
59.0373
59.7376
60.4356
61.1225
61.8842
62.6767
63.6387
64.5064
65.3953
65.4538
38.7731
38.7584
38.7139
38.647
38.5732
38.503
38.4446
38.4057
38.3919
38.4077
38.4569
38.5434
38.671
38.8441
39.068
39.3526
39.7002
40.1004
40.5515
41.0535
41.6069
42.212
42.8686
43.5767
44.3353
45.1434
45.9984
46.8978
47.837
48.811
49.8134
50.8373
51.8735
52.9183
53.9577
54.8727
55.6536
56.4092
57.1538
57.8947
58.6367
59.3732
60.1209
60.8751
61.6916
62.5436
63.5062
64.3616
65.0927
65.0384
38.6345
38.6227
38.5877
38.5341
38.4737
38.4157
38.3675
38.3364
38.3283
38.3478
38.3992
38.4864
38.6136
38.7853
39.007
39.2883
39.6315
40.0265
40.4714
40.9663
41.5114
42.107
42.7529
43.4487
44.1934
44.9858
45.8233
46.7031
47.6208
48.5714
49.5486
50.5457
51.5543
52.5703
53.5825
54.4716
55.2297
55.9676
56.6971
57.4284
58.171
58.9263
59.7094
60.5176
61.3837
62.2795
63.2332
64.0506
64.6277
64.4239
38.494
38.4847
38.4576
38.4153
38.3669
38.3202
38.2819
38.2586
38.2563
38.2797
38.3334
38.4216
38.5485
38.7189
38.938
39.2159
39.5544
39.9436
40.3819
40.869
41.4051
41.9905
42.6247
43.3072
44.037
44.8125
45.6314
46.4904
47.3854
48.3112
49.2618
50.2306
51.21
52.1955
53.178
54.0392
54.7725
55.4893
56.1992
56.9132
57.6436
58.3986
59.1954
60.0349
60.9331
61.8554
62.7867
63.5489
63.9764
63.6061
38.3507
38.3436
38.3228
38.2903
38.2525
38.2162
38.1872
38.1716
38.1751
38.2027
38.2589
38.3481
38.4748
38.6438
38.8604
39.1345
39.468
39.851
40.282
40.7606
41.2871
41.8613
42.4829
43.1512
43.8649
44.6225
45.4213
46.2583
47.1291
48.0288
48.9513
49.8904
50.8387
51.7919
52.7421
53.5732
54.2797
54.9721
55.6582
56.3486
57.0563
57.7932
58.5788
59.4192
60.3204
61.2448
62.1366
62.8319
63.1147
62.5859
38.2037
38.1984
38.1829
38.1585
38.1302
38.1032
38.0829
38.0747
38.084
38.1157
38.1746
38.2649
38.3915
38.5591
38.773
39.043
39.3711
39.7475
40.1707
40.6402
41.1561
41.7184
42.3263
42.9793
43.6758
44.4142
45.1918
46.0053
46.8506
47.7226
48.6155
49.5231
50.4386
51.3574
52.2727
53.0713
53.7488
54.4131
55.0712
55.7323
56.4083
57.112
57.8631
58.6713
59.5397
60.4306
61.2617
61.8745
62.0277
61.3698
38.0519
38.048
38.0369
38.0194
37.9992
37.9807
37.9684
37.9672
37.9821
38.018
38.0795
38.1711
38.2976
38.4636
38.6747
38.9405
39.2628
39.632
40.0467
40.5064
41.011
41.5604
42.1537
42.7902
43.4684
44.1863
44.9413
45.73
46.5482
47.3909
48.2525
49.1269
50.0075
50.8897
51.7674
52.5309
53.1767
53.8094
54.4348
55.061
55.6974
56.3554
57.0523
57.799
58.5971
59.4126
60.1563
60.6686
60.7121
59.9611
37.8941
37.8915
37.884
37.8722
37.8591
37.848
37.843
37.8483
37.8686
37.9086
37.9727
38.0656
38.1918
38.3562
38.5643
38.8255
39.1416
39.5032
39.9088
40.3579
40.8504
41.3859
41.9636
42.5826
43.2411
43.9372
44.6682
45.4305
46.2201
47.032
47.8605
48.6997
49.5434
50.3866
51.2236
51.9491
52.5605
53.1578
53.7457
54.3308
54.9203
55.5225
56.1497
56.811
57.5063
58.2062
58.8301
59.2219
59.1691
58.3564
37.7292
37.7275
37.723
37.7161
37.7089
37.7044
37.7058
37.7172
37.7426
37.7864
37.853
37.947
38.0729
38.2356
38.4404
38.6968
39.0062
39.3596
39.7555
40.1933
40.6727
41.1934
41.7544
42.3546
42.9923
43.6652
44.3707
45.1052
45.8645
46.6438
47.4374
48.2395
49.0439
49.8456
50.6389
51.3232
51.8971
52.4551
53.0006
53.5386
54.0737
54.6111
55.157
55.7155
56.2837
56.8359
57.3069
57.5555
57.4043
56.5597
37.5558
37.555
37.5528
37.5499
37.5478
37.5489
37.5561
37.5728
37.6028
37.6502
37.7192
37.8142
37.9397
38.1004
38.3017
38.5528
38.8551
39.1996
39.5851
40.0108
40.4763
40.9812
41.5243
42.1046
42.72
43.3685
44.047
44.752
45.4794
46.2243
46.981
47.7439
48.5068
49.2643
50.0105
50.6504
51.1835
51.6981
52.1964
52.6813
53.1551
53.6197
54.0754
54.5204
54.9473
55.3317
55.6231
55.7084
55.4413
54.58
37.3724
37.3724
37.3722
37.3725
37.3747
37.3806
37.3927
37.4142
37.4483
37.4989
37.57
37.6657
37.7905
37.9491
38.1466
38.392
38.6866
39.0217
39.396
39.8086
40.2593
40.7473
41.2715
41.8305
42.4224
43.0449
43.6949
44.3689
45.0626
45.7712
46.4891
47.2106
47.9294
48.6399
49.3358
49.9277
50.4167
50.8839
51.3303
51.7567
52.163
52.5478
52.9074
53.2336
53.5138
53.7237
53.8227
53.7287
53.3303
52.4367
37.1777
37.1782
37.1796
37.1826
37.1883
37.1982
37.2145
37.24
37.2777
37.3311
37.4039
37.5001
37.624
37.7801
37.9733
38.2126
38.4989
38.8238
39.1862
39.5849
40.0197
40.4897
40.9937
41.5303
42.0973
42.6922
43.3122
43.9535
44.6118
45.2822
45.9593
46.637
47.3093
47.9698
48.6119
49.1525
49.5939
50.0099
50.3999
50.763
51.0965
51.3965
51.6558
51.8623
51.9979
52.0374
51.9467
51.667
51.1251
50.1805
36.9699
36.9708
36.9735
36.9787
36.9871
37.0003
37.0202
37.0491
37.0897
37.1454
37.2194
37.3157
37.4383
37.5915
37.7801
38.0127
38.2902
38.6042
38.9537
39.3377
39.7555
40.2064
40.689
41.2017
41.7423
42.3083
42.8966
43.5034
44.1245
44.7548
45.3889
46.0206
46.6436
47.2513
47.8363
48.322
48.7126
49.0737
49.4036
49.6992
49.9562
50.168
50.3252
50.4134
50.412
50.2936
50.0273
49.5703
48.8776
47.8631
36.7471
36.7484
36.7521
36.759
36.7697
36.7855
36.8082
36.8398
36.8828
36.9401
37.015
37.1109
37.2318
37.3817
37.5651
37.7905
38.0584
38.3607
38.6965
39.0646
39.4645
39.895
40.3549
40.8424
41.3552
41.8907
42.4456
43.0163
43.5982
44.1865
44.7754
45.3588
45.93
46.4818
47.0063
47.4339
47.7706
48.0737
48.3402
48.5654
48.7434
48.8658
48.9214
48.895
48.7658
48.5069
48.0876
47.4743
46.6361
45.5322
36.5076
36.5092
36.5136
36.5218
36.5342
36.552
36.5768
36.6105
36.6552
36.7136
36.7887
36.8838
37.0024
37.1484
37.3262
37.5437
37.8012
38.0911
38.4122
38.7635
39.1442
39.5532
39.9891
40.4499
40.9335
41.4369
41.9568
42.4895
43.0305
43.5746
44.1162
44.6489
45.1657
45.6589
46.1197
46.4862
46.7662
47.0087
47.2093
47.3623
47.4603
47.4939
47.4511
47.3161
47.0694
46.6865
46.1394
45.3988
44.4374
43.2376
36.2857
36.2875
36.2924
36.3014
36.3149
36.334
36.3601
36.3949
36.4406
36.4995
36.5743
36.6681
36.7843
36.9266
37.099
37.309
37.5571
37.8355
38.1432
38.4792
38.8424
39.2319
39.6461
40.0828
40.54
41.0145
41.503
42.0016
42.5058
43.0105
43.5097
43.9969
44.4648
44.9055
45.3093
45.621
45.8508
46.0397
46.1826
46.273
46.3028
46.2624
46.1394
45.9186
45.5815
45.1065
44.469
43.6439
42.6056
41.3388
36.0901
36.0919
36.0971
36.1066
36.1208
36.1407
36.1676
36.2031
36.2492
36.3081
36.3823
36.4748
36.5887
36.7275
36.895
37.0985
37.3382
37.6066
37.9026
38.2252
38.5734
38.946
39.3413
39.7573
40.1916
40.6413
41.1028
41.5722
42.0449
42.5156
42.9785
43.4267
43.8529
44.2485
44.6037
44.8688
45.056
45.1998
45.2946
45.3333
45.3075
45.2075
45.0212
44.7341
44.3289
43.7864
43.0848
42.2027
41.1188
39.8173
35.8918
35.8937
35.8992
35.909
35.9237
35.944
35.9714
36.0073
36.0535
36.1121
36.1855
36.2763
36.3877
36.5228
36.6854
36.8822
37.1134
37.3718
37.6562
37.9654
38.2986
38.6544
39.031
39.4265
39.8383
40.2634
40.6982
41.1387
41.5804
42.0178
42.4448
42.8548
43.2398
43.5912
43.8986
44.1182
44.2639
44.3641
44.4128
44.4024
44.3246
44.1697
43.9258
43.5794
43.1149
42.5147
41.7604
40.833
39.7158
38.3963
35.6909
35.6928
35.6984
35.7085
35.7234
35.7441
35.7717
35.8077
35.8537
35.9117
35.984
36.073
36.1816
36.313
36.4704
36.6605
36.8832
37.1315
37.4043
37.7002
38.0184
38.3575
38.7157
39.0908
39.4804
39.8812
40.2898
40.7019
41.113
41.5176
41.9096
42.2819
42.6267
42.9348
43.1956
43.371
43.4766
43.5349
43.5397
43.4831
43.3569
43.1515
42.856
42.4575
41.9418
41.2935
40.4966
39.5351
38.3947
37.0666
35.4872
35.4891
35.4948
35.505
35.5201
35.5408
35.5685
35.6043
35.65
35.7072
35.7781
35.865
35.9707
36.0981
36.2503
36.4336
36.6478
36.886
37.1471
37.4299
37.7333
38.0559
38.3958
38.7508
39.1183
39.4953
39.878
40.2623
40.6434
41.0158
41.3733
41.7088
42.0143
42.2802
42.4958
42.6284
42.6954
42.7138
42.677
42.5772
42.4062
42.155
41.8133
41.3692
40.81
40.122
39.2918
38.3058
37.1519
35.8233
35.2807
35.2827
35.2884
35.2986
35.3137
35.3344
35.3619
35.3974
35.4424
35.4985
35.5679
35.6526
35.7553
35.8785
36.0254
36.2018
36.4074
36.6356
36.8851
37.1548
37.4435
37.7497
38.0715
38.4067
38.7526
39.1061
39.4634
39.8203
40.172
40.5129
40.8368
41.1363
41.4034
41.6283
41.8001
41.8915
41.9216
41.902
41.826
41.6858
41.4736
41.181
40.7981
40.3144
39.7183
38.9981
38.142
37.1391
35.9794
34.6576
35.0714
35.0734
35.0791
35.0892
35.1042
35.1248
35.1519
35.1869
35.2311
35.2861
35.3537
35.436
35.5354
35.6544
35.7959
35.9653
36.1624
36.3806
36.6186
36.8752
37.1493
37.4394
37.7434
38.0591
38.3837
38.714
39.0464
39.3764
39.6993
40.0094
40.3004
40.565
40.7947
40.9799
41.1094
41.1613
41.1561
41.1006
40.9879
40.8102
40.5602
40.2301
39.8108
39.2927
38.6657
37.9194
37.0441
36.0305
34.8707
33.561
34.8594
34.8613
34.867
34.877
34.8918
34.912
34.9387
34.973
35.0163
35.0699
35.1356
35.2154
35.3115
35.4262
35.5621
35.7246
35.913
36.1212
36.3478
36.5916
36.8512
37.1253
37.4118
37.7082
38.0118
38.3195
38.6274
38.9312
39.2259
39.506
39.765
39.9954
40.189
40.3357
40.4246
40.4387
40.4
40.3106
40.1635
39.9512
39.6668
39.3029
38.8515
38.3039
37.651
36.8842
35.9949
34.9759
33.8207
32.5269
34.6446
34.6465
34.652
34.6619
34.6764
34.6963
34.7224
34.7559
34.798
34.8501
34.9138
34.991
35.0836
35.1939
35.3243
35.4797
35.6596
35.8578
36.0731
36.304
36.5495
36.8078
37.0769
37.3544
37.6375
37.923
38.2069
38.485
38.7522
39.003
39.2309
39.4283
39.5868
39.6965
39.7464
39.7245
39.6541
39.5328
39.3538
39.1096
38.7938
38.3999
37.9203
37.3473
36.6732
35.8904
34.9919
33.9717
32.8246
31.5498
34.4271
34.429
34.4344
34.444
34.4582
34.4776
34.5031
34.5357
34.5766
34.6271
34.6886
34.763
34.852
34.9578
35.0826
35.231
35.4023
35.5907
35.7947
36.013
36.2444
36.4872
36.7393
36.9982
37.2611
37.5248
37.7853
38.0383
38.2788
38.5011
38.6987
38.8641
38.9889
39.063
39.0755
39.0194
38.9191
38.768
38.5593
38.2859
37.9418
37.521
37.0168
36.4224
35.731
34.9363
34.0323
33.0144
31.8785
30.6246
34.2069
34.2087
34.214
34.2234
34.2372
34.2561
34.2808
34.3124
34.352
34.4007
34.4601
34.5315
34.617
34.7182
34.8373
34.9787
35.1415
35.32
35.5129
35.7188
35.9363
36.1638
36.3992
36.6399
36.883
37.1254
37.3631
37.5916
37.806
38.0006
38.1689
38.3034
38.3957
38.4356
38.4126
38.3241
38.1957
38.0168
37.7807
37.4805
37.1109
36.6663
36.1408
35.5284
34.8233
34.02
33.1138
32.101
30.9786
29.747
33.9841
33.9859
33.991
34.0002
34.0136
34.0318
34.0558
34.0863
34.1245
34.1714
34.2284
34.2969
34.3786
34.4753
34.5887
34.7231
34.8774
35.0462
35.228
35.4216
35.6255
35.838
36.0569
36.2798
36.5036
36.7251
36.9405
37.1452
37.3343
37.5021
37.6421
37.7467
37.8077
37.815
37.7581
37.6391
37.4844
37.2796
37.0183
36.6938
36.3012
35.8357
35.2919
34.6646
33.9487
33.1399
32.2342
31.2288
30.1215
28.9133
33.7589
33.7606
33.7655
33.7743
33.7873
33.8049
33.828
33.8574
33.8941
33.9391
33.9937
34.0592
34.1372
34.2292
34.337
34.4643
34.6103
34.7694
34.9403
35.1218
35.3123
35.51
35.7128
35.9182
36.1231
36.3244
36.518
36.6996
36.8641
37.0059
37.1185
37.1945
37.2255
37.2016
37.1127
36.9649
36.7856
36.5569
36.2724
35.9259
35.5128
35.029
34.4695
33.83
33.1062
32.2943
31.3913
30.3951
29.3043
28.1201
33.5312
33.5328
33.5376
33.5461
33.5585
33.5755
33.5976
33.6258
33.661
33.7041
33.7562
33.8187
33.8929
33.9802
34.0824
34.2027
34.3403
34.4898
34.6501
34.8196
34.9969
35.1801
35.3672
35.5554
35.7419
35.9234
36.0959
36.255
36.3958
36.5124
36.5986
36.647
36.6494
36.5959
36.4766
36.3018
36.0996
35.8488
35.5432
35.1767
34.7455
34.2457
33.6731
33.0239
32.2944
31.4817
30.5833
29.5978
28.5243
27.3646
33.3011
33.3027
33.3073
33.3154
33.3274
33.3436
33.3648
33.3918
33.4253
33.4664
33.5161
33.5754
33.6458
33.7285
33.825
33.9384
34.0677
34.2078
34.3575
34.5153
34.6796
34.8487
35.0203
35.1919
35.3604
35.5226
35.6746
35.8119
35.9296
36.022
36.0829
36.1049
36.0798
35.9982
35.8502
35.6502
35.4268
35.1556
34.8307
34.4463
33.9991
33.4855
32.902
32.2452
31.5122
30.7005
29.8083
28.8347
27.7793
26.6441
33.0688
33.0704
33.0747
33.0825
33.0939
33.1094
33.1296
33.1553
33.1873
33.2263
33.2734
33.3297
33.3962
33.4743
33.5651
33.6717
33.7928
33.9236
34.0629
34.2091
34.3607
34.5159
34.6725
34.8277
34.9788
35.1222
35.2543
35.3705
35.466
35.5351
35.5716
35.5682
35.5171
35.4088
35.2338
35.0103
34.7672
34.4773
34.1349
33.7346
33.2733
32.748
32.1556
31.4932
30.7584
29.9493
29.0646
28.1038
27.067
25.9563
32.8344
32.8359
32.84
32.8474
32.8583
32.873
32.8922
32.9166
32.9469
32.9839
33.0285
33.0816
33.1443
33.2177
33.303
33.4027
33.5157
33.6374
33.7664
33.9013
34.0405
34.1821
34.3239
34.4633
34.5973
34.7226
34.8353
34.9312
35.0052
35.0518
35.065
35.0375
34.9616
34.828
34.6277
34.3822
34.121
33.814
33.4558
33.0413
32.5677
32.0325
31.433
30.7667
30.0318
29.2267
28.3506
27.4034
26.3854
25.299
32.5979
32.5993
32.6033
32.6103
32.6206
32.6345
32.6527
32.6758
32.7044
32.7393
32.7813
32.8313
32.8902
32.959
33.0387
33.1316
33.2366
33.3493
33.4683
33.5921
33.7192
33.8475
33.9749
34.0989
34.2164
34.324
34.418
34.4942
34.5475
34.5726
34.5634
34.5128
34.4134
34.2561
34.032
33.7662
33.4882
33.1657
32.7933
32.3662
31.882
31.3386
30.7336
30.065
29.3313
28.5314
27.6648
26.7317
25.7327
24.6703
32.3595
32.3608
32.3646
32.3712
32.3809
32.3941
32.4112
32.433
32.4599
32.4927
32.5322
32.579
32.6341
32.6983
32.7725
32.8588
32.9559
33.0597
33.1688
33.2818
33.3969
33.5123
33.6258
33.7347
33.8361
33.9267
34.0027
34.0598
34.0933
34.0977
34.067
33.9946
33.8729
33.6931
33.4469
33.1622
32.8689
32.5323
32.1472
31.7091
31.2158
30.6657
30.0567
29.3871
28.6558
27.8621
27.0058
26.0873
25.1073
24.0686
32.1193
32.1205
32.124
32.1303
32.1394
32.1518
32.1679
32.1883
32.2135
32.2443
32.2811
32.3248
32.3761
32.4358
32.5045
32.5842
32.6736
32.7687
32.8682
32.9705
33.074
33.1768
33.2767
33.371
33.4568
33.5309
33.5894
33.6282
33.6426
33.6272
33.5762
33.4829
33.3401
33.1393
32.8724
32.5703
32.263
31.9136
31.5172
31.0695
30.5686
30.0131
29.4014
28.7321
28.0043
27.2177
26.3722
25.4685
24.5075
23.4921
31.8773
31.8785
31.8818
31.8876
31.8962
31.9077
31.9228
31.9419
31.9654
31.994
32.0283
32.0689
32.1164
32.1716
32.235
32.3082
32.39
32.4766
32.5666
32.6585
32.7507
32.8412
32.9278
33.008
33.0787
33.1368
33.1785
33.1997
33.1958
33.1615
33.091
32.978
32.8153
32.5947
32.3086
31.9905
31.6705
31.3096
30.9032
30.4471
29.9399
29.3803
28.7671
28.0991
27.3757
26.5968
25.7627
24.874
23.932
22.9394
31.6338
31.6348
31.6379
31.6433
31.6513
31.6621
31.6761
31.6938
31.7157
31.7422
31.7739
31.8114
31.8552
31.9059
31.964
32.0309
32.1052
32.1834
32.2642
32.3459
32.4271
32.5057
32.5794
32.6458
32.702
32.7447
32.7702
32.7745
32.753
32.7006
32.6117
32.4799
32.2985
32.0595
31.7555
31.4227
31.0912
30.72
30.3047
29.8415
29.3292
28.7667
28.153
27.4872
26.7691
25.9985
25.1761
24.3026
23.3794
22.4091
31.3887
31.3897
31.3925
31.3976
31.4049
31.4149
31.4279
31.4442
31.4644
31.4889
31.5181
31.5525
31.5926
31.639
31.6918
31.7524
31.8194
31.8894
31.9612
32.033
32.1034
32.1704
32.2317
32.2849
32.3269
32.3547
32.3647
32.3527
32.3145
32.2448
32.1383
31.9889
31.7899
31.5337
31.2132
30.8669
30.5249
30.1445
29.7216
29.2524
28.736
28.1716
27.5584
26.8957
26.1834
25.4217
24.6113
23.7531
22.8484
21.8999
31.1422
31.1432
31.1458
31.1504
31.1572
31.1664
31.1783
31.1933
31.2118
31.2342
31.2609
31.2923
31.3288
31.3708
31.4185
31.473
31.5328
31.5948
31.6577
31.72
31.7799
31.8356
31.8849
31.9252
31.9536
31.9671
31.9621
31.9346
31.8803
31.7943
31.6711
31.505
31.2895
31.0172
30.6814
30.3229
29.9715
29.5831
29.1535
28.6793
28.1598
27.5944
26.9825
26.3236
25.6178
24.8654
24.0672
23.2242
22.3379
21.4107
30.8945
30.8953
30.8977
30.902
30.9082
30.9165
30.9274
30.9411
30.958
30.9783
31.0026
31.031
31.0639
31.1016
31.1443
31.1928
31.2455