/*--------------------------------*- C++ -*----------------------------------*\
  =========                 |
  \\      /  F ield         | OpenFOAM: The Open Source CFD Toolbox
   \\    /   O peration     | Website:  https://openfoam.org
    \\  /    A nd           | Version:  13
     \\/     M anipulation  |
\*---------------------------------------------------------------------------*/
FoamFile
{
    format      ascii;
    class       surfaceScalarField;
    location    "753";
    object      phi;
}
// * * * * * * * * * * * * * * * * * * * * * * * * * * * * * * * * * * * * * //

dimensions      [0 3 -1 0 0 0 0];

internalField   nonuniform List<scalar> 
155440
(
1.01247e-06
1.35774e-06
4.83729e-07
5.28737e-07
3.58584e-07
1.25145e-07
3.01674e-07
5.69093e-08
2.70414e-07
3.12606e-08
2.51398e-07
1.90156e-08
2.38664e-07
1.27344e-08
2.29377e-07
9.28682e-09
2.21276e-07
8.10025e-09
2.14388e-07
6.88802e-09
2.07631e-07
6.75717e-09
2.01504e-07
6.12691e-09
1.95449e-07
6.05544e-09
1.89419e-07
6.02959e-09
1.83289e-07
6.12989e-09
1.76771e-07
6.51815e-09
1.70268e-07
6.50239e-09
1.63718e-07
6.5502e-09
1.57084e-07
6.63432e-09
1.50307e-07
6.77607e-09
1.43329e-07
6.97838e-09
1.36099e-07
7.22957e-09
1.28566e-07
7.53305e-09
1.20702e-07
7.8639e-09
1.12477e-07
8.22525e-09
1.03881e-07
8.5952e-09
9.49285e-08
8.95298e-09
8.56501e-08
9.27811e-09
7.61102e-08
9.53967e-09
6.64157e-08
9.69445e-09
5.66985e-08
9.7171e-09
4.71371e-08
9.56067e-09
3.78998e-08
9.23804e-09
2.92085e-08
8.69066e-09
2.11985e-08
8.01058e-09
1.57361e-08
5.46373e-09
1.10032e-08
4.72952e-09
6.64499e-09
4.36035e-09
3.22559e-09
3.4167e-09
-3.65179e-10
3.59265e-09
-2.28884e-09
1.92244e-09
-5.88999e-09
3.60035e-09
-5.71715e-09
-1.73149e-10
-1.11592e-08
5.44093e-09
-7.29548e-09
-3.86315e-09
-1.34304e-08
6.13562e-09
9.17714e-09
-2.26074e-08
3.67273e-08
-2.75493e-08
1.31279e-07
-9.45519e-08
2.00989e-07
-6.97103e-08
2.21433e-06
1.66305e-06
1.52638e-06
1.21669e-06
1.13847e-06
5.13048e-07
9.42186e-07
2.53198e-07
8.38035e-07
1.35412e-07
7.74088e-07
8.29619e-08
7.29379e-07
5.74437e-08
6.96117e-07
4.25485e-08
6.68333e-07
3.58844e-08
6.44892e-07
3.03292e-08
6.23089e-07
2.85605e-08
6.03508e-07
2.57078e-08
5.84755e-07
2.48079e-08
5.66518e-07
2.42669e-08
5.48379e-07
2.42683e-08
5.29444e-07
2.54528e-08
5.10846e-07
2.51003e-08
4.92316e-07
2.50803e-08
4.73689e-07
2.52612e-08
4.5476e-07
2.57048e-08
4.35323e-07
2.64157e-08
4.1521e-07
2.73419e-08
3.94239e-07
2.85047e-08
3.72296e-07
2.98058e-08
3.49254e-07
3.12673e-08
3.25043e-07
3.28059e-08
2.99645e-07
3.43518e-08
2.73088e-07
3.5834e-08
2.45501e-07
3.71273e-08
2.17114e-07
3.80806e-08
1.88267e-07
3.8564e-08
1.59429e-07
3.83981e-08
1.31088e-07
3.75796e-08
1.03934e-07
3.58452e-08
7.83398e-08
3.36048e-08
6.07309e-08
2.30759e-08
4.49034e-08
2.05562e-08
3.07354e-08
1.85296e-08
1.83901e-08
1.57589e-08
7.33332e-09
1.46515e-08
-1.56719e-09
1.08227e-08
-1.05902e-08
1.26238e-08
-1.5764e-08
5.00272e-09
-2.54104e-08
1.50862e-08
-2.56339e-08
-3.63804e-09
-2.32338e-08
3.73627e-09
1.27089e-08
-5.85494e-08
1.27231e-07
-1.4207e-07
2.66321e-07
-2.33642e-07
5.54491e-07
-8.71798e-08
2.68893e-06
1.65261e-06
2.3042e-06
1.60142e-06
1.90014e-06
9.17104e-07
1.60591e-06
5.47432e-07
1.41855e-06
3.22768e-07
1.29601e-06
2.05502e-07
1.20829e-06
1.45162e-07
1.14165e-06
1.09187e-07
1.08767e-06
8.98708e-08
1.04244e-06
7.55553e-08
1.00234e-06
6.86594e-08
9.66588e-07
6.14606e-08
9.33409e-07
5.79867e-08
9.01968e-07
5.57078e-08
8.71461e-07
5.47749e-08
8.40316e-07
5.65979e-08
8.10334e-07
5.50822e-08
7.80948e-07
5.44665e-08
7.51771e-07
5.44377e-08
7.22416e-07
5.506e-08
6.92511e-07
5.63199e-08
6.61753e-07
5.81004e-08
6.29824e-07
6.04331e-08
5.96504e-07
6.31256e-08
5.61558e-07
6.6213e-08
5.24834e-07
6.95303e-08
4.86246e-07
7.2939e-08
4.45786e-07
7.62942e-08
4.03582e-07
7.93309e-08
3.59916e-07
8.17466e-08
3.15239e-07
8.32408e-08
2.70197e-07
8.34409e-08
2.25497e-07
8.22792e-08
1.82178e-07
7.91639e-08
1.40775e-07
7.50071e-08
1.12001e-07
5.18512e-08
8.56084e-08
4.69442e-08
6.2052e-08
4.20888e-08
4.05636e-08
3.72441e-08
2.22755e-08
3.29418e-08
5.24731e-09
2.7849e-08
-8.36692e-09
2.62368e-08
-2.1558e-08
1.81923e-08
-3.23034e-08
2.58306e-08
-4.14749e-08
5.5335e-09
-2.23563e-08
-1.53812e-08
1.4328e-08
-9.52339e-08
1.98404e-07
-3.26145e-07
3.2285e-07
-3.58088e-07
9.43499e-07
-6.61592e-08
2.92413e-06
1.57583e-06
2.80475e-06
1.7208e-06
2.53477e-06
1.18709e-06
2.24302e-06
8.39178e-07
2.00137e-06
5.64422e-07
1.81997e-06
3.86895e-07
1.6836e-06
2.81539e-07
1.57767e-06
2.15118e-07
1.49241e-06
1.75129e-07
1.4213e-06
1.46666e-07
1.35987e-06
1.30085e-07
1.30547e-06
1.15866e-07
1.25598e-06
1.07478e-07
1.20996e-06
1.01719e-07
1.16614e-06
9.85992e-08
1.12215e-06
1.00586e-07
1.08051e-06
9.6721e-08
1.04029e-06
9.46911e-08
1.00081e-06
9.39181e-08
9.61472e-07
9.43957e-08
9.2173e-07
9.60611e-08
8.81129e-07
9.87014e-08
8.39222e-07
1.0234e-07
7.9567e-07
1.06678e-07
7.50138e-07
1.11746e-07
7.02386e-07
1.17282e-07
6.52263e-07
1.23062e-07
5.99717e-07
1.2884e-07
5.44868e-07
1.3418e-07
4.8803e-07
1.38585e-07
4.29742e-07
1.41529e-07
3.70792e-07
1.42389e-07
3.1207e-07
1.41002e-07
2.54891e-07
1.36343e-07
1.99939e-07
1.29959e-07
1.61556e-07
9.02364e-08
1.26072e-07
8.24292e-08
9.43507e-08
7.38107e-08
6.4946e-08
6.66475e-08
4.02155e-08
5.76731e-08
1.60675e-08
5.19972e-08
-1.76918e-09
4.40746e-08
-2.21554e-08
3.85799e-08
-3.3715e-08
3.73906e-08
-5.03421e-08
2.21614e-08
-1.79239e-08
-4.77988e-08
1.99507e-08
-1.33108e-07
2.42596e-07
-5.48789e-07
3.53381e-07
-4.68873e-07
1.34819e-06
-5.13132e-08
3.13604e-06
1.46665e-06
3.1392e-06
1.71764e-06
3.00939e-06
1.3169e-06
2.79843e-06
1.05014e-06
2.56421e-06
7.98643e-07
2.35155e-06
5.99554e-07
2.17438e-06
4.58714e-07
2.02932e-06
3.60179e-07
1.91008e-06
2.94366e-07
1.80998e-06
2.46771e-07
1.72425e-06
2.1581e-07
1.64871e-06
1.91401e-07
1.58078e-06
1.75411e-07
1.5184e-06
1.64096e-07
1.4598e-06
1.57201e-07
1.40173e-06
1.58658e-07
1.34747e-06
1.5098e-07
1.29569e-06
1.46474e-07
1.24537e-06
1.44234e-07
1.19568e-06
1.4409e-07
1.14585e-06
1.45891e-07
1.09526e-06
1.49283e-07
1.04334e-06
1.54263e-07
9.89609e-07
1.60408e-07
9.33627e-07
1.67727e-07
8.75063e-07
1.75846e-07
8.13689e-07
1.84436e-07
7.49403e-07
1.93125e-07
6.82311e-07
2.01272e-07
6.12752e-07
2.08143e-07
5.41343e-07
2.12937e-07
4.69012e-07
2.14722e-07
3.96827e-07
2.13187e-07
3.26371e-07
2.06799e-07
2.58504e-07
1.97825e-07
2.10975e-07
1.37768e-07
1.66922e-07
1.26479e-07
1.27461e-07
1.13273e-07
9.07435e-08
1.03363e-07
5.98574e-08
8.85603e-08
2.93817e-08
8.24714e-08
7.30856e-09
6.61466e-08
-1.91222e-08
6.50089e-08
-3.18932e-08
5.0161e-08
-5.37814e-08
4.40493e-08
-1.24586e-08
-8.91209e-08
2.84157e-08
-1.73983e-07
2.72827e-07
-7.932e-07
3.74674e-07
-5.7072e-07
1.76566e-06
-4.2794e-08
3.33368e-06
1.35066e-06
3.38732e-06
1.664e-06
3.34889e-06
1.35533e-06
3.2354e-06
1.16363e-06
3.06262e-06
9.71428e-07
2.86707e-06
7.951e-07
2.67577e-06
6.50013e-07
2.50226e-06
5.33694e-07
2.35166e-06
4.44963e-07
2.2219e-06
3.76534e-07
2.10981e-06
3.27895e-07
2.01102e-06
2.90196e-07
1.92254e-06
2.63894e-07
1.84177e-06
2.44859e-07
1.76664e-06
2.32337e-07
1.69292e-06
2.3238e-07
1.62474e-06
2.19161e-07
1.56031e-06
2.10904e-07
1.49826e-06
2.06284e-07
1.43746e-06
2.04884e-07
1.37692e-06
2.06435e-07
1.31584e-06
2.10367e-07
1.25346e-06
2.1664e-07
1.18918e-06
2.24685e-07
1.12244e-06
2.34469e-07
1.0528e-06
2.45487e-07
9.79943e-07
2.57293e-07
9.03709e-07
2.69359e-07
8.24174e-07
2.80808e-07
7.41691e-07
2.90626e-07
6.56946e-07
2.97682e-07
5.70999e-07
3.00669e-07
4.85098e-07
2.99088e-07
4.01096e-07
2.90801e-07
3.20056e-07
2.78865e-07
2.63182e-07
1.94643e-07
2.10417e-07
1.79245e-07
1.63044e-07
1.60646e-07
1.18991e-07
1.47416e-07
8.1765e-08
1.25786e-07
4.51678e-08
1.19069e-07
1.8551e-08
9.27646e-08
-1.33088e-08
9.68698e-08
-2.78118e-08
6.46648e-08
-5.34238e-08
6.96619e-08
-6.30252e-09
-1.36242e-07
3.89579e-08
-2.19242e-07
2.96449e-07
-1.05069e-06
3.91584e-07
-6.65855e-07
2.19478e-06
-3.75331e-08
3.5314e-06
1.23982e-06
3.60273e-06
1.59267e-06
3.60844e-06
1.34961e-06
3.56488e-06
1.20719e-06
3.4674e-06
1.06892e-06
3.32801e-06
9.34484e-07
3.16111e-06
8.16915e-07
2.9848e-06
7.10002e-07
2.81573e-06
6.14031e-07
2.66115e-06
5.31117e-07
2.52334e-06
4.65705e-07
2.40029e-06
4.13245e-07
2.28962e-06
3.74567e-07
2.18866e-06
3.45813e-07
2.0952e-06
3.25802e-07
2.00407e-06
3.23507e-07
1.92044e-06
3.02785e-07
1.84205e-06
2.89295e-07
1.76713e-06
2.81204e-07
1.69424e-06
2.77776e-07
1.62212e-06
2.78561e-07
1.54977e-06
2.82715e-07
1.47625e-06
2.90156e-07
1.40081e-06
3.00127e-07
1.32274e-06
3.1254e-07
1.24148e-06
3.2674e-07
1.15663e-06
3.42148e-07
1.06794e-06
3.58052e-07
9.75437e-07
3.73307e-07
8.79486e-07
3.86576e-07
7.80824e-07
3.96344e-07
6.80632e-07
4.00863e-07
5.80344e-07
3.99375e-07
4.82079e-07
3.89066e-07
3.87137e-07
3.73807e-07
3.20365e-07
2.61418e-07
2.5838e-07
2.41227e-07
2.02586e-07
2.16441e-07
1.50806e-07
1.99195e-07
1.06781e-07
1.69812e-07
6.38783e-08
1.6197e-07
3.22507e-08
1.24391e-07
-4.86631e-09
1.33985e-07
-2.15751e-08
8.13732e-08
-5.00288e-08
9.81151e-08
8.29642e-10
-1.87099e-07
5.12209e-08
-2.69634e-07
3.16672e-07
-1.31614e-06
4.05636e-07
-7.5482e-07
2.63428e-06
-3.38611e-08
3.74014e-06
1.13588e-06
3.81626e-06
1.51655e-06
3.83942e-06
1.32645e-06
3.83133e-06
1.21528e-06
3.78813e-06
1.11211e-06
3.70984e-06
1.01278e-06
3.59489e-06
9.31862e-07
3.4493e-06
8.55597e-07
3.28713e-06
7.762e-07
3.12226e-06
6.95991e-07
2.96524e-06
6.22725e-07
2.81995e-06
5.58528e-07
2.68693e-06
5.07594e-07
2.56466e-06
4.68076e-07
2.45133e-06
4.39136e-07
2.34112e-06
4.33716e-07
2.24046e-06
4.03445e-07
2.14667e-06
3.83083e-07
2.05759e-06
3.70287e-07
1.97142e-06
3.63943e-07
1.88665e-06
3.6333e-07
1.80208e-06
3.67287e-07
1.71655e-06
3.75683e-07
1.62914e-06
3.87544e-07
1.53898e-06
4.02702e-07
1.44538e-06
4.20336e-07
1.34781e-06
4.39717e-07
1.24594e-06
4.59922e-07
1.13974e-06
4.79507e-07
1.02955e-06
4.96769e-07
9.16141e-07
5.09751e-07
8.00816e-07
5.16187e-07
6.8519e-07
5.15001e-07
5.71654e-07
5.02601e-07
4.61767e-07
4.83695e-07
3.84307e-07
3.3888e-07
3.1235e-07
3.13186e-07
2.47396e-07
2.81395e-07
1.87255e-07
2.59336e-07
1.35775e-07
2.21291e-07
8.61326e-08
2.11613e-07
4.88936e-08
1.61631e-07
6.4242e-09
1.76455e-07
-1.29675e-08
1.00766e-07
-4.37792e-08
1.28927e-07
9.28456e-09
-2.40163e-07
6.50973e-08
-3.25446e-07
3.34875e-07
-1.58592e-06
4.17442e-07
-8.37387e-07
3.08264e-06
-3.09191e-08
3.96316e-06
1.03816e-06
4.04011e-06
1.4396e-06
4.07019e-06
1.29637e-06
4.07704e-06
1.20843e-06
4.06222e-06
1.12693e-06
4.02516e-06
1.04984e-06
3.96091e-06
9.96109e-07
3.86478e-06
9.51727e-07
3.73735e-06
9.03631e-07
3.58696e-06
8.46383e-07
3.42691e-06
7.82775e-07
3.26778e-06
7.17657e-07
3.11583e-06
6.59539e-07
2.97298e-06
6.1093e-07
2.83914e-06
5.72975e-07
2.70859e-06
5.64265e-07
2.58947e-06
5.22565e-07
2.47886e-06
4.93698e-07
2.37423e-06
4.74909e-07
2.27353e-06
4.64648e-07
2.17494e-06
4.61916e-07
2.07704e-06
4.65186e-07
1.97847e-06
4.74256e-07
1.87811e-06
4.879e-07
1.77494e-06
5.0587e-07
1.66812e-06
5.27163e-07
1.55696e-06
5.50877e-07
1.44103e-06
5.75853e-07
1.32022e-06
6.00317e-07
1.19483e-06
6.22156e-07
1.06566e-06
6.38919e-07
9.34112e-07
6.47736e-07
8.01983e-07
6.4713e-07
6.71935e-07
6.32647e-07
5.45814e-07
6.09817e-07
4.56682e-07
4.28017e-07
3.73805e-07
3.96061e-07
2.98766e-07
3.56435e-07
2.29433e-07
3.28667e-07
1.69677e-07
2.81048e-07
1.12668e-07
2.68621e-07
6.90913e-08
2.05206e-07
2.09957e-08
2.24549e-07
-1.63054e-09
1.23392e-07
-3.45954e-08
1.61892e-07
1.94128e-08
-2.9417e-07
8.06416e-08
-3.86675e-07
3.51677e-07
-1.85695e-06
4.27302e-07
-9.13012e-07
3.53812e-06
-2.81851e-08
4.2014e-06
9.45903e-07
4.27815e-06
1.36284e-06
4.31174e-06
1.26278e-06
4.32512e-06
1.19506e-06
4.32331e-06
1.12873e-06
4.30739e-06
1.06576e-06
4.27534e-06
1.02816e-06
4.22188e-06
1.00519e-06
4.14031e-06
9.852e-07
4.02753e-06
9.59163e-07
3.88819e-06
9.22107e-07
3.7326e-06
8.73251e-07
3.57184e-06
8.20296e-07
3.41327e-06
7.69508e-07
3.26061e-06
7.25628e-07
3.10968e-06
7.15203e-07
2.97122e-06
6.61017e-07
2.8426e-06
6.22319e-07
2.72116e-06
5.96346e-07
2.60462e-06
5.81189e-07
2.49098e-06
5.7556e-07
2.37857e-06
5.77595e-07
2.26582e-06
5.87005e-07
2.15144e-06
6.02284e-07
2.0342e-06
6.23103e-07
1.91312e-06
6.48245e-07
1.78736e-06
6.76644e-07
1.65634e-06
7.0687e-07
1.51986e-06
7.36792e-07
1.37817e-06
7.63848e-07
1.23206e-06
7.85024e-07
1.08303e-06
7.96768e-07
9.33041e-07
7.9712e-07
7.85037e-07
7.8065e-07
6.4117e-07
7.53685e-07
5.39213e-07
5.29975e-07
4.4429e-07
4.90986e-07
3.58065e-07
4.4266e-07
2.78536e-07
4.08196e-07
2.0952e-07
3.50064e-07
1.44347e-07
3.33794e-07
9.35823e-08
2.55972e-07
3.94443e-08
2.78688e-07
1.28985e-08
1.49939e-07
-2.22115e-08
1.97002e-07
3.15949e-08
-3.47976e-07
9.79655e-08
-4.53045e-07
3.6737e-07
-2.12636e-06
4.35375e-07
-9.81017e-07
3.99878e-06
-2.5285e-08
4.45549e-06
8.58612e-07
4.53183e-06
1.2865e-06
4.56786e-06
1.22675e-06
4.58481e-06
1.1781e-06
4.58934e-06
1.12421e-06
4.58345e-06
1.07165e-06
4.56767e-06
1.04394e-06
4.53958e-06
1.03328e-06
4.49383e-06
1.03095e-06
4.42338e-06
1.02961e-06
4.32283e-06
1.02266e-06
4.19296e-06
1.00311e-06
4.04169e-06
9.7157e-07
3.87915e-06
9.32051e-07
3.71393e-06
8.90847e-07
3.54537e-06
8.83763e-07
3.3882e-06
8.18184e-07
3.24114e-06
7.69381e-07
3.10197e-06
7.35513e-07
2.96846e-06
7.14697e-07
2.83857e-06
7.0545e-07
2.71043e-06
7.05736e-07
2.58232e-06
7.15113e-07
2.45275e-06
7.31853e-07
2.32032e-06
7.55539e-07
2.18384e-06
7.84723e-07
2.04232e-06
8.18163e-07
1.89506e-06
8.54126e-07
1.74174e-06
8.9012e-07
1.5825e-06
9.23087e-07
1.41812e-06
9.49396e-07
1.25018e-06
9.64713e-07
1.0808e-06
9.66498e-07
9.13204e-07
9.48247e-07
7.49869e-07
9.17021e-07
6.33765e-07
6.46086e-07
5.25498e-07
5.99252e-07
4.26813e-07
5.41346e-07
3.35905e-07
4.99102e-07
2.5648e-07
4.2949e-07
1.82182e-07
4.08091e-07
1.2324e-07
3.14912e-07
6.24879e-08
3.39439e-07
3.11895e-08
1.81236e-07
-6.191e-09
2.34382e-07
4.62627e-08
-4.00429e-07
1.17229e-07
-5.24011e-07
3.82103e-07
-2.39123e-06
4.41746e-07
-1.04066e-06
4.46244e-06
-2.19103e-08
4.7262e-06
7.76009e-07
4.80205e-06
1.21065e-06
4.84018e-06
1.18862e-06
4.8597e-06
1.15858e-06
4.8679e-06
1.11601e-06
4.86718e-06
1.07237e-06
4.85933e-06
1.05178e-06
4.84394e-06
1.04867e-06
4.81847e-06
1.05641e-06
4.77812e-06
1.06996e-06
4.71589e-06
1.0849e-06
4.62492e-06
1.09408e-06
4.50323e-06
1.09326e-06
4.35554e-06
1.07975e-06
4.19098e-06
1.05541e-06
4.01268e-06
1.06207e-06
3.84049e-06
9.90376e-07
3.67627e-06
9.33598e-07
3.51939e-06
8.92392e-07
3.36832e-06
8.65767e-07
3.22125e-06
8.52524e-07
3.07628e-06
8.50707e-07
2.93165e-06
8.59735e-07
2.7857e-06
8.77808e-07
2.63687e-06
9.04365e-07
2.4838e-06
9.37789e-07
2.32531e-06
9.76658e-07
2.16055e-06
1.01889e-06
1.98906e-06
1.06161e-06
1.8109e-06
1.10125e-06
1.6268e-06
1.1335e-06
1.43837e-06
1.15314e-06
1.24791e-06
1.15696e-06
1.05889e-06
1.13726e-06
8.74155e-07
1.10176e-06
7.42412e-07
7.77828e-07
6.19326e-07
7.22339e-07
5.06728e-07
6.53944e-07
4.03077e-07
6.02752e-07
3.11917e-07
5.2065e-07
2.27356e-07
4.92652e-07
1.59097e-07
3.83173e-07
9.09959e-08
4.07541e-07
5.39266e-08
2.18307e-07
1.40288e-08
2.74281e-07
6.39234e-08
-4.50323e-07
1.38644e-07
-5.98731e-07
3.95963e-07
-2.64855e-06
4.46469e-07
-1.09117e-06
4.92669e-06
-1.77766e-08
5.01438e-06
6.97981e-07
5.08964e-06
1.13539e-06
5.12979e-06
1.14846e-06
5.15155e-06
1.13682e-06
5.16234e-06
1.10523e-06
5.16474e-06
1.06997e-06
5.16115e-06
1.05538e-06
5.15212e-06
1.0577e-06
5.13678e-06
1.07175e-06
5.11278e-06
1.09396e-06
5.07582e-06
1.12186e-06
5.01922e-06
1.15068e-06
4.93554e-06
1.17694e-06
4.82029e-06
1.19499e-06
4.67522e-06
1.20048e-06
4.50213e-06
1.23515e-06
4.32387e-06
1.16863e-06
4.14713e-06
1.11034e-06
3.97459e-06
1.06494e-06
3.80653e-06
1.03383e-06
3.642e-06
1.01705e-06
3.4795e-06
1.0132e-06
3.31741e-06
1.02183e-06
3.15396e-06
1.04126e-06
2.98756e-06
1.07077e-06
2.81666e-06
1.10868e-06
2.63994e-06
1.15338e-06
2.45636e-06
1.20247e-06
2.26531e-06
1.25266e-06
2.06673e-06
1.29982e-06
1.86131e-06
1.33892e-06
1.65068e-06
1.36376e-06
1.43727e-06
1.37038e-06
1.22482e-06
1.34971e-06
1.01654e-06
1.31004e-06
8.67494e-07
9.26883e-07
7.2793e-07
8.61904e-07
5.99774e-07
7.82101e-07
4.81823e-07
7.20701e-07
3.77411e-07
6.25061e-07
2.81263e-07
5.88799e-07
2.02372e-07
4.62061e-07
1.26013e-07
4.83898e-07
8.19845e-08
2.62335e-07
3.91436e-08
3.17121e-07
8.51201e-08
-4.96299e-07
1.62482e-07
-6.76094e-07
4.09021e-07
-2.89509e-06
4.49582e-07
-1.13173e-06
5.38887e-06
-1.26046e-08
5.321e-06
6.24542e-07
5.39549e-06
1.06091e-06
5.43764e-06
1.1063e-06
5.46159e-06
1.11288e-06
5.47453e-06
1.09228e-06
5.47917e-06
1.06533e-06
5.47822e-06
1.05632e-06
5.47272e-06
1.0632e-06
5.46258e-06
1.08189e-06
5.44676e-06
1.10979e-06
5.42313e-06
1.14549e-06
5.3878e-06
1.18601e-06
5.33466e-06
1.23008e-06
5.25598e-06
1.27367e-06
5.14508e-06
1.31138e-06
4.99622e-06
1.38401e-06
4.82732e-06
1.33753e-06
4.6481e-06
1.28957e-06
4.46562e-06
1.24741e-06
4.28348e-06
1.21597e-06
4.1027e-06
1.19783e-06
3.92286e-06
1.19305e-06
3.74283e-06
1.20185e-06
3.56111e-06
1.22298e-06
3.3761e-06
1.25578e-06
3.18621e-06
1.29857e-06
2.98998e-06
1.34961e-06
2.78625e-06
1.4062e-06
2.5742e-06
1.46471e-06
2.35364e-06
1.52038e-06
2.12519e-06
1.56737e-06
1.8905e-06
1.59845e-06
1.65212e-06
1.60875e-06
1.41404e-06
1.58779e-06
1.17986e-06
1.54422e-06
1.01166e-06
1.09507e-06
8.53769e-07
1.0198e-06
7.08211e-07
9.27659e-07
5.74191e-07
8.5472e-07
4.54804e-07
7.44448e-07
3.45535e-07
6.98068e-07
2.54508e-07
5.5309e-07
1.68785e-07
5.69622e-07
1.16436e-07
3.14686e-07
6.99953e-08
3.63562e-07
1.10469e-07
-5.36772e-07
1.89065e-07
-7.54688e-07
4.21328e-07
-3.12735e-06
4.51118e-07
-1.16152e-06
5.8461e-06
-6.11445e-09
5.64715e-06
5.55789e-07
5.7206e-06
9.87454e-07
5.76473e-06
1.06218e-06
5.7909e-06
1.08671e-06
5.80583e-06
1.07735e-06
5.81234e-06
1.05883e-06
5.81331e-06
1.05536e-06
5.81005e-06
1.06646e-06
5.80285e-06
1.08909e-06
5.79129e-06
1.12134e-06
5.77437e-06
1.16241e-06
5.75005e-06
1.21033e-06
5.71489e-06
1.26524e-06
5.66327e-06
1.32529e-06
5.58698e-06
1.38767e-06
5.47456e-06
1.49643e-06
5.33235e-06
1.47974e-06
5.16639e-06
1.45553e-06
4.98525e-06
1.42855e-06
4.79602e-06
1.4052e-06
4.60292e-06
1.39092e-06
4.40766e-06
1.38831e-06
4.2104e-06
1.39911e-06
4.01029e-06
1.42308e-06
3.80607e-06
1.46001e-06
3.59625e-06
1.50839e-06
3.37936e-06
1.5665e-06
3.15414e-06
1.63142e-06
2.91968e-06
1.69917e-06
2.67557e-06
1.76449e-06
2.42233e-06
1.82061e-06
2.16159e-06
1.85919e-06
1.89607e-06
1.87428e-06
1.62998e-06
1.85387e-06
1.36731e-06
1.80689e-06
1.17794e-06
1.28446e-06
9.99662e-07
1.19809e-06
8.34641e-07
1.09268e-06
6.82559e-07
1.0068e-06
5.46244e-07
8.80761e-07
4.22092e-07
8.22219e-07
3.17203e-07
6.57977e-07
2.2079e-07
6.66032e-07
1.58554e-07
3.76921e-07
1.0759e-07
4.14525e-07
1.40708e-07
-5.69889e-07
2.18773e-07
-8.32754e-07
4.32932e-07
-3.34151e-06
4.51107e-07
-1.17969e-06
6.29523e-06
1.98359e-09
5.994e-06
4.91876e-07
6.06608e-06
9.15366e-07
6.11211e-06
1.01615e-06
6.14058e-06
1.05823e-06
6.15749e-06
1.06044e-06
6.16572e-06
1.0506e-06
6.16827e-06
1.0528e-06
6.16664e-06
1.06809e-06
6.16133e-06
1.0944e-06
6.15222e-06
1.13045e-06
6.13884e-06
1.17579e-06
6.12007e-06
1.22911e-06
6.0941e-06
1.29121e-06
6.05775e-06
1.36164e-06
6.00549e-06
1.43993e-06
5.92682e-06
1.57509e-06
5.8199e-06
1.58666e-06
5.68275e-06
1.59268e-06
5.51889e-06
1.59241e-06
5.33508e-06
1.58901e-06
5.13807e-06
1.58793e-06
4.9325e-06
1.59388e-06
4.72082e-06
1.6108e-06
4.50362e-06
1.64027e-06
4.2805e-06
1.68313e-06
4.05039e-06
1.73849e-06
3.81203e-06
1.80487e-06
3.56417e-06
1.87928e-06
3.30589e-06
1.95745e-06
3.0367e-06
2.03368e-06
2.75694e-06
2.10037e-06
2.46815e-06
2.14799e-06
2.17316e-06
2.16927e-06
1.87649e-06
2.15053e-06
1.58253e-06
2.10085e-06
1.36977e-06
1.49722e-06
1.16883e-06
1.39902e-06
9.82062e-07
1.27945e-06
8.09678e-07
1.17918e-06
6.54233e-07
1.03621e-06
5.13179e-07
9.63274e-07
3.92462e-07
7.78696e-07
2.83779e-07
7.74717e-07
2.09851e-07
4.5085e-07
1.53126e-07
4.71251e-07
1.76714e-07
-5.93475e-07
2.52068e-07
-9.08107e-07
4.43913e-07
-3.53335e-06
4.49577e-07
-1.18536e-06
6.73275e-06
1.2049e-08
6.36285e-06
4.32966e-07
6.43319e-06
8.45033e-07
6.48094e-06
9.68401e-07
6.51178e-06
1.0274e-06
6.53071e-06
1.04151e-06
6.54065e-06
1.04066e-06
6.54465e-06
1.0488e-06
6.54436e-06
1.06838e-06
6.54041e-06
1.09835e-06
6.53288e-06
1.13798e-06
6.52153e-06
1.18714e-06
6.50569e-06
1.24494e-06
6.48435e-06
1.31256e-06
6.4557e-06
1.39029e-06
6.41662e-06
1.479e-06
6.36011e-06
1.63161e-06
6.28335e-06
1.66342e-06
6.18019e-06
1.69584e-06
6.04691e-06
1.72569e-06
5.8843e-06
1.75162e-06
5.69709e-06
1.77514e-06
5.4912e-06
1.79977e-06
5.27156e-06
1.83044e-06
5.04113e-06
1.8707e-06
4.80113e-06
1.92313e-06
4.55154e-06
1.98808e-06
4.29164e-06
2.06477e-06
4.02047e-06
2.15045e-06
3.73721e-06
2.24071e-06
3.44146e-06
2.32943e-06
3.1335e-06
2.40832e-06
2.8147e-06
2.4668e-06
2.4879e-06
2.49606e-06
2.15791e-06
2.48052e-06
1.82962e-06
2.42915e-06
1.59104e-06
1.7358e-06
1.36498e-06
1.62509e-06
1.15393e-06
1.4905e-06
9.58738e-07
1.37437e-06
7.81689e-07
1.21325e-06
6.2143e-07
1.12353e-06
4.82644e-07
9.1748e-07
3.59816e-07
8.97542e-07
2.72122e-07
5.38545e-07
2.08029e-07
5.35343e-07
2.19539e-07
-6.04984e-07
2.89504e-07
-9.78072e-07
4.54425e-07
-3.69827e-06
4.46586e-07
-1.17752e-06
7.15482e-06
2.45184e-08
6.75514e-06
3.79201e-07
6.82329e-06
7.76885e-07
6.87251e-06
9.19181e-07
6.90573e-06
9.94185e-07
6.92675e-06
1.02048e-06
6.93846e-06
1.02895e-06
6.9439e-06
1.04336e-06
6.94482e-06
1.06746e-06
6.94197e-06
1.1012e-06
6.93555e-06
1.1444e-06
6.92548e-06
1.19721e-06
6.9113e-06
1.25913e-06
6.89236e-06
1.3315e-06
6.86755e-06
1.41511e-06
6.83503e-06
1.51152e-06
6.79032e-06
1.67632e-06
6.73243e-06
1.72131e-06
6.65612e-06
1.77215e-06
6.5551e-06
1.82671e-06
6.4243e-06
1.88242e-06
6.26203e-06
1.93741e-06
6.07055e-06
1.99125e-06
5.85461e-06
2.04638e-06
5.619e-06
2.1063e-06
5.36722e-06
2.17492e-06
5.10103e-06
2.25427e-06
4.82096e-06
2.34483e-06
4.52677e-06
2.44464e-06
4.21801e-06
2.54947e-06
3.8945e-06
2.65294e-06
3.55671e-06
2.74611e-06
3.20602e-06
2.81748e-06
2.84521e-06
2.85688e-06
2.47912e-06
2.84659e-06
2.11323e-06
2.79505e-06
1.84622e-06
2.00281e-06
1.59232e-06
1.87899e-06
1.35421e-06
1.72861e-06
1.13343e-06
1.59515e-06
9.32003e-07
1.41467e-06
7.49921e-07
1.30561e-06
5.90519e-07
1.07688e-06
4.51338e-07
1.03672e-06
3.47489e-07
6.42396e-07
2.73999e-07
6.08834e-07
2.70451e-07
-6.01434e-07
3.31768e-07
-1.03939e-06
4.64753e-07
-3.83126e-06
4.42296e-07
-1.15506e-06
7.55722e-06
3.98963e-08
7.17241e-06
3.30661e-07
7.23792e-06
7.11373e-07
7.28823e-06
8.68873e-07
7.32376e-06
9.58652e-07
7.34696e-06
9.9728e-07
7.36051e-06
1.0154e-06
7.36742e-06
1.03644e-06
7.36952e-06
1.06536e-06
7.36766e-06
1.10306e-06
7.36213e-06
1.14993e-06
7.35293e-06
1.20641e-06
7.33974e-06
1.27232e-06
7.32209e-06
1.34914e-06
7.2992e-06
1.438e-06
7.26987e-06
1.54085e-06
7.23091e-06
1.71527e-06
7.18277e-06
1.76945e-06
7.12237e-06
1.83255e-06
7.04495e-06
1.90413e-06
6.94439e-06
1.98298e-06
6.81456e-06
2.06724e-06
6.65142e-06
2.15439e-06
6.45464e-06
2.24317e-06
6.2272e-06
2.33374e-06
5.97347e-06
2.42866e-06
5.69722e-06
2.53052e-06
5.40093e-06
2.64113e-06
5.08576e-06
2.75981e-06
4.75216e-06
2.88307e-06
4.40053e-06
3.00458e-06
4.03162e-06
3.11501e-06
3.64722e-06
3.20189e-06
3.25025e-06
3.25385e-06
2.84545e-06
3.25138e-06
2.43867e-06
3.20184e-06
2.14036e-06
2.30114e-06
1.85566e-06
2.1637e-06
1.58746e-06
1.99681e-06
1.338e-06
1.84461e-06
1.10911e-06
1.64355e-06
9.02241e-07
1.51248e-06
7.19337e-07
1.25979e-06
5.61208e-07
1.19485e-06
4.38464e-07
7.65139e-07
3.53058e-07
6.94239e-07
3.30985e-07
-5.79361e-07
3.79729e-07
-1.08813e-06
4.75377e-07
-3.9269e-06
4.37001e-07
-1.11669e-06
7.93545e-06
5.8771e-08
7.61631e-06
2.87339e-07
7.67874e-06
6.48944e-07
7.72965e-06
8.17962e-07
7.76734e-06
9.20968e-07
7.79274e-06
9.71871e-07
7.80823e-06
9.99911e-07
7.81671e-06
1.02797e-06
7.82002e-06
1.06205e-06
7.8191e-06
1.10397e-06
7.81434e-06
1.1547e-06
7.8058e-06
1.21495e-06
7.79323e-06
1.28489e-06
7.77628e-06
1.3661e-06
7.75431e-06
1.45996e-06
7.72644e-06
1.56871e-06
7.69014e-06
1.75158e-06
7.64658e-06
1.81301e-06
7.59409e-06
1.88504e-06
7.52995e-06
1.96827e-06
7.44991e-06
2.06303e-06
7.34802e-06
2.16913e-06
7.21736e-06
2.28505e-06
7.05186e-06
2.40868e-06
6.8484e-06
2.53719e-06
6.60775e-06
2.66931e-06
6.33327e-06
2.80499e-06
6.02894e-06
2.94546e-06
5.69792e-06
3.09083e-06
5.34229e-06
3.23869e-06
4.9636e-06
3.38326e-06
4.56333e-06
3.51528e-06
4.14379e-06
3.62143e-06
3.70853e-06
3.68912e-06
3.26258e-06
3.69732e-06
2.81181e-06
3.65262e-06
2.47926e-06
2.63367e-06
2.16051e-06
2.48245e-06
1.8589e-06
2.29843e-06
1.57735e-06
2.12616e-06
1.31758e-06
1.90333e-06
1.08257e-06
1.74749e-06
8.72901e-07
1.46946e-06
6.92792e-07
1.37496e-06
5.48012e-07
9.0992e-07
4.47615e-07
7.94637e-07
4.0301e-07
-5.34754e-07
4.34509e-07
-1.11963e-06
4.87032e-07
-3.97942e-06
4.31178e-07
-1.06084e-06
8.28479e-06
8.18421e-08
8.08864e-06
2.49122e-07
8.14758e-06
5.90011e-07
8.19852e-06
7.6702e-07
8.23806e-06
8.81422e-07
8.26565e-06
9.44281e-07
8.28316e-06
9.82404e-07
8.29328e-06
1.01785e-06
8.29787e-06
1.05747e-06
8.29792e-06
1.10392e-06
8.29388e-06
1.15873e-06
8.28588e-06
1.22295e-06
8.27373e-06
1.29703e-06
8.25713e-06
1.3827e-06
8.23553e-06
1.48156e-06
8.20822e-06
1.59603e-06
8.17294e-06
1.78686e-06
8.13127e-06
1.85468e-06
8.08228e-06
1.93403e-06
8.02444e-06
2.02611e-06
7.95534e-06
2.13213e-06
7.87109e-06
2.25337e-06
7.76597e-06
2.39017e-06
7.63252e-06
2.54213e-06
7.46282e-06
2.70689e-06
7.25093e-06
2.88119e-06
6.99486e-06
3.06107e-06
6.69648e-06
3.24384e-06
6.3597e-06
3.4276e-06
5.98852e-06
3.60988e-06
5.58638e-06
3.78541e-06
5.15622e-06
3.94544e-06
4.70131e-06
4.07633e-06
4.2261e-06
4.16435e-06
3.73651e-06
4.18692e-06
3.23891e-06
4.15017e-06
2.86938e-06
3.00321e-06
2.5132e-06
2.83863e-06
2.17448e-06
2.63715e-06
1.85711e-06
2.44353e-06
1.56268e-06
2.19775e-06
1.29577e-06
2.01439e-06
1.05566e-06
1.70957e-06
8.50036e-07
1.58058e-06
6.79628e-07
1.08033e-06
5.60531e-07
9.13733e-07
4.88798e-07
-4.63021e-07
4.97553e-07
-1.12838e-06
5.00792e-07
-3.98266e-06
4.25549e-07
-9.85591e-07
8.6004e-06
1.09935e-07
8.5913e-06
2.15792e-07
8.64638e-06
5.34925e-07
8.69673e-06
7.16672e-07
8.73772e-06
8.40434e-07
8.76737e-06
9.14626e-07
8.78693e-06
9.62851e-07
8.79878e-06
1.006e-06
8.80472e-06
1.05153e-06
8.80578e-06
1.10286e-06
8.80247e-06
1.16204e-06
8.79497e-06
1.23045e-06
8.78312e-06
1.30888e-06
8.76667e-06
1.39916e-06
8.74512e-06
1.50311e-06
8.71782e-06
1.62333e-06
8.68267e-06
1.822e-06
8.64147e-06
1.89588e-06
8.59364e-06
1.98185e-06
8.5383e-06
2.08146e-06
8.47404e-06
2.19638e-06
8.39867e-06
2.32875e-06
8.30861e-06
2.48022e-06
8.19833e-06
2.65241e-06
8.05994e-06
2.84528e-06
7.88391e-06
3.05722e-06
7.66137e-06
3.2836e-06
7.38707e-06
3.51815e-06
7.06087e-06
3.75381e-06
6.68637e-06
3.98436e-06
6.26873e-06
4.20306e-06
5.81313e-06
4.40103e-06
5.32466e-06
4.56479e-06
4.8091e-06
4.67992e-06
4.2738e-06
4.72219e-06
3.7265e-06
4.6975e-06
3.31752e-06
3.41216e-06
2.92078e-06
3.23538e-06
2.54107e-06
3.01686e-06
2.1837e-06
2.8009e-06
1.85048e-06
2.53097e-06
1.54747e-06
2.3174e-06
1.27278e-06
1.98426e-06
1.03756e-06
1.8158e-06
8.37427e-07
1.28046e-06
6.95199e-07
1.05596e-06
5.9112e-07
-3.58939e-07
5.70734e-07
-1.10799e-06
5.18185e-07
-3.93011e-06
4.21148e-07
-8.88556e-07
8.87757e-06
1.43977e-07
9.12626e-06
1.87033e-07
9.17725e-06
4.83941e-07
9.22637e-06
6.67546e-07
9.26827e-06
7.98536e-07
9.29976e-06
8.8314e-07
9.32132e-06
9.41288e-07
9.33496e-06
9.92363e-07
9.34233e-06
1.04416e-06
9.34446e-06
1.10073e-06
9.34191e-06
1.16459e-06
9.33489e-06
1.23748e-06
9.32329e-06
1.32048e-06
9.30686e-06
1.41559e-06
9.28515e-06
1.52482e-06
9.25754e-06
1.65094e-06
9.22198e-06
1.85755e-06
9.18043e-06
1.93744e-06
9.13249e-06
2.02979e-06
9.0776e-06
2.13635e-06
9.0149e-06
2.25908e-06
8.94308e-06
2.40057e-06
8.86009e-06
2.56321e-06
8.76259e-06
2.74991e-06
8.64519e-06
2.96267e-06
8.49964e-06
3.20278e-06
8.31488e-06
3.46836e-06
8.07894e-06
3.75409e-06
7.78288e-06
4.04986e-06
7.42392e-06
4.34333e-06
7.00535e-06
4.62163e-06
6.53381e-06
4.87256e-06
6.01703e-06
5.08156e-06
5.46314e-06
5.23383e-06
4.88138e-06
5.30399e-06
4.2817e-06
5.29709e-06
3.83086e-06
3.86302e-06
3.39077e-06
3.67546e-06
2.9664e-06
3.44125e-06
2.5646e-06
3.20269e-06
2.18797e-06
2.90759e-06
1.84416e-06
2.6612e-06
1.53028e-06
2.29814e-06
1.26077e-06
2.08531e-06
1.02624e-06
1.51499e-06
8.55652e-07
1.22655e-06
7.13359e-07
-2.16648e-07
6.56484e-07
-1.05112e-06
5.41334e-07
-3.81496e-06
4.19394e-07
-7.6661e-07
9.11216e-06
1.84807e-07
9.69563e-06
1.62454e-07
9.74236e-06
4.3721e-07
9.78969e-06
6.20225e-07
9.83188e-06
7.56347e-07
9.86484e-06
8.50177e-07
9.88828e-06
9.17849e-07
9.9037e-06
9.76938e-07
9.91256e-06
1.0353e-06
9.91583e-06
1.09746e-06
9.91408e-06
1.16634e-06
9.90755e-06
1.244e-06
9.89617e-06
1.33186e-06
9.87969e-06
1.43206e-06
9.85769e-06
1.54683e-06
9.82955e-06
1.67908e-06
9.79324e-06
1.89386e-06
9.75082e-06
1.97986e-06
9.70202e-06
2.07859e-06
9.64643e-06
2.19193e-06
9.58348e-06
2.32203e-06
9.51233e-06
2.47172e-06
9.43173e-06
2.64382e-06
9.33973e-06
2.84191e-06
9.23316e-06
3.06924e-06
9.10669e-06
3.32925e-06
8.95173e-06
3.62333e-06
8.75556e-06
3.95026e-06
8.50297e-06
4.30245e-06
8.18065e-06
4.66564e-06
7.78278e-06
5.01953e-06
7.31236e-06
5.34294e-06
6.77833e-06
5.61568e-06
6.19202e-06
5.82005e-06
5.56568e-06
5.93032e-06
4.91232e-06
5.95051e-06
4.41724e-06
4.35806e-06
3.93103e-06
4.16169e-06
3.45879e-06
3.91348e-06
3.00829e-06
3.6532e-06
2.5832e-06
3.33268e-06
2.19333e-06
3.05107e-06
1.83515e-06
2.65633e-06
1.52597e-06
2.39449e-06
1.25174e-06
1.78922e-06
1.04668e-06
1.43161e-06
8.59644e-07
-2.96059e-08
7.57957e-07
-9.49426e-07
5.73137e-07
-3.63013e-06
4.22193e-07
-6.15669e-07
9.30117e-06
2.33182e-07
1.03016e-05
1.41616e-07
1.0344e-05
3.94767e-07
1.03891e-05
5.75203e-07
1.04309e-05
7.14517e-07
1.04649e-05
8.16203e-07
1.04899e-05
8.92778e-07
1.05071e-05
9.59806e-07
1.05174e-05
1.02496e-06
1.05219e-05
1.093e-06
1.0521e-05
1.16724e-06
1.0515e-05
1.25001e-06
1.05038e-05
1.34304e-06
1.04872e-05
1.44863e-06
1.04648e-05
1.56922e-06
1.0436e-05
1.70789e-06
1.03987e-05
1.93116e-06
1.03551e-05
2.02349e-06
1.03049e-05
2.12875e-06
1.02479e-05
2.24893e-06
1.01837e-05
2.38628e-06
1.01116e-05
2.54382e-06
1.00308e-05
2.7246e-06
9.94013e-06
2.93259e-06
9.83771e-06
3.17166e-06
9.72045e-06
3.44651e-06
9.58305e-06
3.76072e-06