/*--------------------------------*- C++ -*----------------------------------*\
  =========                 |
  \\      /  F ield         | OpenFOAM: The Open Source CFD Toolbox
   \\    /   O peration     | Website:  https://openfoam.org
    \\  /    A nd           | Version:  13
     \\/     M anipulation  |
\*---------------------------------------------------------------------------*/
FoamFile
{
    format      ascii;
    class       volVectorField;
    location    "753";
    object      U;
}
// * * * * * * * * * * * * * * * * * * * * * * * * * * * * * * * * * * * * * //

dimensions      [0 1 -1 0 0 0 0];

internalField   nonuniform List<vector> 
78000
(
(5.22882 -2.67655 0)
(2.66159 -0.268485 0)
(1.70684 0.0124526 0)
(1.34412 0.00387626 0)
(1.18474 0.000375986 0)
(1.09657 -7.15512e-05 0)
(1.02485 -0.000158519 0)
(0.987958 -0.000185954 0)
(0.946538 -9.74538e-05 0)
(0.919952 -9.36716e-05 0)
(0.888417 -2.49176e-05 0)
(0.862863 -2.87401e-05 0)
(0.836897 1.62334e-07 0)
(0.811666 1.59315e-05 0)
(0.786043 3.03213e-05 0)
(0.759492 4.13936e-05 0)
(0.732092 5.15654e-05 0)
(0.704648 5.90343e-05 0)
(0.676802 6.42586e-05 0)
(0.64867 6.85398e-05 0)
(0.619631 7.22367e-05 0)
(0.589771 7.51291e-05 0)
(0.558646 7.7396e-05 0)
(0.526196 7.83873e-05 0)
(0.492309 7.83095e-05 0)
(0.456797 7.67257e-05 0)
(0.419798 7.32319e-05 0)
(0.381282 6.7544e-05 0)
(0.34152 5.97886e-05 0)
(0.30083 4.91322e-05 0)
(0.259725 3.67974e-05 0)
(0.218877 2.20347e-05 0)
(0.179045 7.24448e-06 0)
(0.1409 -6.47397e-06 0)
(0.105833 -2.20176e-05 0)
(0.0771006 -2.21818e-05 0)
(0.0563383 -4.47388e-05 0)
(0.0358542 -1.53664e-05 0)
(0.02181 -7.40207e-05 0)
(0.00296689 2.81418e-05 0)
(-0.00170466 -0.000143447 0)
(-0.0246017 0.000149456 0)
(-0.013764 -0.00031883 0)
(-0.052729 0.000460475 0)
(-0.0125979 -0.000754435 0)
(-0.0965861 0.00130683 0)
(0.0595338 -0.00203445 0)
(-0.0951808 0.00320285 0)
(0.665335 -0.00946065 0)
(-0.175355 0.0978402 0)
(9.93333 0.329418 0)
(7.19987 0.241855 0)
(5.0581 0.0692034 0)
(3.98315 0.0295215 0)
(3.46681 0.0143378 0)
(3.18056 0.00811453 0)
(2.96095 0.0051927 0)
(2.82508 0.00358382 0)
(2.69732 0.00295157 0)
(2.60542 0.00238264 0)
(2.51134 0.00222667 0)
(2.43245 0.00191104 0)
(2.35621 0.00180095 0)
(2.28354 0.00170879 0)
(2.21151 0.00165531 0)
(2.13836 0.00162335 0)
(2.06415 0.00162201 0)
(1.99077 0.00163661 0)
(1.91704 0.00165932 0)
(1.84292 0.00169669 0)
(1.7668 0.00174923 0)
(1.68861 0.00181366 0)
(1.60718 0.00189158 0)
(1.52214 0.00197571 0)
(1.43303 0.00206771 0)
(1.33924 0.00216135 0)
(1.24088 0.00225149 0)
(1.13768 0.00233314 0)
(1.0301 0.00239762 0)
(0.918757 0.00243464 0)
(0.804793 0.00243655 0)
(0.689841 0.00239235 0)
(0.575882 0.00230411 0)
(0.464846 0.00215766 0)
(0.360517 0.00197952 0)
(0.273852 0.00179953 0)
(0.209403 0.00158183 0)
(0.146399 0.00145432 0)
(0.100032 0.00117506 0)
(0.0427156 0.00119698 0)
(0.0218799 0.000703979 0)
(-0.0442329 0.00118071 0)
(-0.02319 3.54674e-05 0)
(-0.128603 0.00177484 0)
(-0.0303065 -0.001112 0)
(-0.2431 0.00176244 0)
(0.168287 -0.00758057 0)
(-0.218239 -0.0128208 0)
(1.548 -0.0326675 0)
(-0.155829 0.0933649 0)
(10.3724 1.08782 0)
(9.47505 0.525968 0)
(7.78156 0.182283 0)
(6.40234 0.0863396 0)
(5.55448 0.0461507 0)
(5.0268 0.0275396 0)
(4.64314 0.0183195 0)
(4.37224 0.0130447 0)
(4.1468 0.0103047 0)
(3.97036 0.00829542 0)
(3.80958 0.00729679 0)
(3.67129 0.00625316 0)
(3.54305 0.0056827 0)
(3.42365 0.00525128 0)
(3.30842 0.00496374 0)
(3.19405 0.00476874 0)
(3.08049 0.00467844 0)
(2.9702 0.00465658 0)
(2.86105 0.00467743 0)
(2.75234 0.00475015 0)
(2.64186 0.00487458 0)
(2.52903 0.00504131 0)
(2.41221 0.00525368 0)
(2.29062 0.0054943 0)
(2.16343 0.00576686 0)
(2.02969 0.00605636 0)
(1.88923 0.00635036 0)
(1.74159 0.00663583 0)
(1.58713 0.00688946 0)
(1.4265 0.00708389 0)
(1.26108 0.00719363 0)
(1.09295 0.0071856 0)
(0.924759 0.00705617 0)
(0.759154 0.00675465 0)
(0.601439 0.00635993 0)
(0.469027 0.00588223 0)
(0.368607 0.00536258 0)
(0.270524 0.00488252 0)
(0.195076 0.00430503 0)
(0.105589 0.00393747 0)
(0.0660801 0.00318096 0)
(-0.0346014 0.00333895 0)
(-0.0141266 0.00185071 0)
(-0.168623 0.00375658 0)
(-0.0366209 -0.000104923 0)
(-0.330764 -0.000609718 0)
(0.25147 -0.0149579 0)
(-0.256266 -0.0463837 0)
(1.95953 -0.0604579 0)
(-0.0483929 0.149202 0)
(10.1196 0.538735 0)
(10.2676 0.4103 0)
(9.47432 0.256471 0)
(8.33683 0.161815 0)
(7.38331 0.0958104 0)
(6.65831 0.0593204 0)
(6.11399 0.0401311 0)
(5.70145 0.0288589 0)
(5.37203 0.0224163 0)
(5.10418 0.0178987 0)
(4.8735 0.0152767 0)
(4.67332 0.013003 0)
(4.49197 0.011579 0)
(4.32597 0.0105139 0)
(4.16903 0.00977784 0)
(4.01578 0.00925984 0)
(3.86628 0.00896492 0)
(3.72332 0.00882776 0)
(3.58372 0.00879615 0)
(3.44601 0.00887499 0)
(3.30743 0.00906056 0)
(3.16686 0.00933402 0)
(3.02226 0.00969907 0)
(2.87249 0.0101263 0)
(2.71636 0.0106202 0)
(2.55267 0.0111553 0)
(2.38097 0.01171 0)
(2.20063 0.0122611 0)
(2.01189 0.0127666 0)
(1.8154 0.0131788 0)
(1.61266 0.0134482 0)
(1.40601 0.0135152 0)
(1.19859 0.013366 0)
(0.993519 0.0129029 0)
(0.797071 0.0122737 0)
(0.631533 0.0114422 0)
(0.504663 0.0105836 0)
(0.381192 0.00963343 0)
(0.283569 0.00876723 0)
(0.171294 0.00777281 0)
(0.115428 0.00693848 0)
(-0.00802299 0.00623737 0)
(0.00607378 0.0050488 0)
(-0.177807 0.00586493 0)
(-0.0316213 0.00248872 0)
(-0.365112 -0.00587446 0)
(0.30351 -0.0222714 0)
(-0.243973 -0.0870684 0)
(2.10116 -0.0841304 0)
(0.0230979 0.230547 0)
(10.1156 0.364808 0)
(10.4996 0.402095 0)
(10.2836 0.304441 0)
(9.6187 0.221734 0)
(8.84246 0.150414 0)
(8.08331 0.101529 0)
(7.44086 0.0714021 0)
(6.91326 0.0523423 0)
(6.48481 0.040483 0)
(6.12728 0.0322243 0)
(5.82474 0.0269711 0)
(5.5617 0.0228163 0)
(5.32644 0.0200151 0)
(5.11329 0.0179279 0)
(4.91466 0.0164485 0)
(4.72318 0.0153892 0)
(4.53874 0.0147288 0)
(4.36468 0.0143611 0)
(4.19657 0.0142001 0)
(4.03221 0.0142351 0)
(3.86821 0.0144555 0)
(3.70295 0.0148277 0)
(3.53401 0.0153534 0)
(3.35986 0.0159893 0)
(3.17899 0.0167385 0)
(2.98996 0.0175626 0)
(2.79204 0.0184286 0)
(2.58445 0.0192995 0)
(2.36729 0.0201108 0)
(2.14117 0.0207886 0)
(1.90768 0.0212537 0)
(1.66937 0.0214128 0)
(1.42975 0.0212383 0)
(1.19238 0.0205762 0)
(0.964295 0.0196569 0)
(0.771948 0.0183885 0)
(0.623578 0.01712 0)
(0.479951 0.0155791 0)
(0.36419 0.0143855 0)
(0.23464 0.0125741 0)
(0.164474 0.0117451 0)
(0.0256325 0.00979497 0)
(0.0310404 0.00932656 0)
(-0.169725 0.00809369 0)
(-0.0195109 0.00616038 0)
(-0.369188 -0.0130116 0)
(0.336288 -0.0298271 0)
(-0.211769 -0.132697 0)
(2.1309 -0.105071 0)
(0.0617433 0.316592 0)
(10.1287 0.359778 0)
(10.5261 0.423355 0)
(10.559 0.324575 0)
(10.278 0.256453 0)
(9.81153 0.195462 0)
(9.21094 0.145658 0)
(8.59684 0.109092 0)
(8.02053 0.0828327 0)
(7.52018 0.0647046 0)
(7.08627 0.0516841 0)
(6.71514 0.0428319 0)
(6.39064 0.0360818 0)
(6.10206 0.0313329 0)
(5.84127 0.027781 0)
(5.60059 0.0252059 0)
(5.37084 0.0233443 0)
(5.15171 0.0221211 0)
(4.94707 0.021382 0)
(4.75122 0.0209908 0)
(4.5614 0.0209149 0)
(4.37336 0.0211312 0)
(4.18507 0.0215836 0)
(3.99369 0.0222704 0)
(3.79735 0.0231319 0)
(3.59419 0.0241673 0)
(3.38252 0.0253235 0)
(3.16133 0.0265539 0)
(2.92968 0.0278044 0)
(2.6875 0.0289837 0)
(2.43535 0.0299865 0)
(2.17482 0.0306969 0)
(1.90863 0.0309803 0)
(1.6406 0.0307894 0)
(1.37468 0.0299029 0)
(1.11854 0.0286434 0)
(0.902483 0.0268576 0)
(0.734982 0.0250971 0)
(0.573691 0.0228447 0)
(0.441676 0.0212532 0)
(0.297513 0.018453 0)
(0.21401 0.0176357 0)
(0.0635096 0.0141277 0)
(0.0590467 0.0146233 0)
(-0.151953 0.0105894 0)
(-0.00279008 0.0106406 0)
(-0.35703 -0.0215003 0)
(0.358977 -0.0381185 0)
(-0.171042 -0.182175 0)
(2.11116 -0.124588 0)
(0.0807865 0.403772 0)
(10.1236 0.339852 0)
(10.4863 0.409741 0)
(10.5977 0.324043 0)
(10.5203 0.271463 0)
(10.3112 0.223966 0)
(9.95467 0.181278 0)
(9.49521 0.145878 0)
(8.97494 0.116749 0)
(8.46455 0.0938246 0)
(7.98738 0.0760514 0)
(7.56194 0.063037 0)
(7.18265 0.0530653 0)
(6.84356 0.0458022 0)
(6.53625 0.0403177 0)
(6.25391 0.0362712 0)
(5.98581 0.0333132 0)
(5.732 0.0313013 0)
(5.49688 0.0300191 0)
(5.27363 0.029276 0)
(5.05882 0.0290049 0)
(4.84743 0.0291615 0)
(4.63709 0.0296625 0)
(4.42442 0.0305005 0)
(4.20724 0.0315957 0)
(3.98332 0.0329412 0)
(3.75076 0.034467 0)
(3.50824 0.0361112 0)
(3.25463 0.0377991 0)
(2.98966 0.0394088 0)
(2.71381 0.0407983 0)
(2.42864 0.0418084 0)
(2.13695 0.0422554 0)
(1.84281 0.0420644 0)
(1.55054 0.0409368 0)
(1.26833 0.0392933 0)
(1.03019 0.0369173 0)
(0.844731 0.0345805 0)
(0.66698 0.0315044 0)
(0.519541 0.0294269 0)
(0.362034 0.0254889 0)
(0.265501 0.0246372 0)
(0.10523 0.0193277 0)
(0.0900178 0.020904 0)
(-0.127462 0.0134567 0)
(0.0175805 0.0157425 0)
(-0.334763 -0.0309204 0)
(0.376197 -0.0473778 0)
(-0.126306 -0.233954 0)
(2.06581 -0.14298 0)
(0.087862 0.492521 0)
(10.1132 0.312492 0)
(10.4364 0.388851 0)
(10.5652 0.318776 0)
(10.5679 0.275754 0)
(10.4983 0.237532 0)
(10.3338 0.202924 0)
(10.0668 0.173893 0)
(9.6968 0.147922 0)
(9.2645 0.124394 0)
(8.80427 0.103807 0)
(8.35795 0.0871272 0)
(7.94127 0.0737506 0)
(7.55982 0.0635811 0)
(7.2103 0.0557713 0)
(6.88803 0.0498713 0)
(6.58245 0.0455003 0)
(6.2943 0.0424531 0)
(6.02882 0.0404362 0)
(5.77842 0.0392004 0)
(5.53884 0.0386302 0)
(5.30448 0.0386579 0)
(5.07258 0.0391621 0)
(4.83933 0.0401307 0)
(4.60215 0.0414593 0)
(4.35852 0.0431318 0)
(4.10624 0.0450599 0)
(3.84373 0.0471641 0)
(3.56961 0.0493457 0)
(3.28343 0.0514485 0)
(2.98551 0.0532887 0)
(2.67734 0.054657 0)
(2.36176 0.0553113 0)
(2.04302 0.055142 0)
(1.72577 0.0537626 0)
(1.41861 0.0516945 0)
(1.15927 0.0486583 0)
(0.956391 0.045657 0)
(0.762711 0.0416476 0)
(0.600117 0.0389802 0)
(0.429801 0.0337673 0)
(0.320179 0.0327939 0)
(0.151071 0.0254844 0)
(0.124284 0.0281555 0)
(-0.097301 0.0167792 0)
(0.0412782 0.0213333 0)
(-0.305085 -0.0409102 0)
(0.390361 -0.0576953 0)
(-0.0797788 -0.286952 0)
(2.00525 -0.160179 0)
(0.0872111 0.58311 0)
(10.1014 0.285529 0)
(10.3906 0.369205 0)
(10.5203 0.312267 0)
(10.5507 0.275186 0)
(10.54 0.242536 0)
(10.4768 0.213402 0)
(10.3481 0.190567 0)
(10.1406 0.170568 0)
(9.84876 0.150914 0)
(9.47944 0.131402 0)
(9.0696 0.113357 0)
(8.65102 0.0974684 0)
(8.24671 0.0845282 0)
(7.86534 0.0742086 0)
(7.50819 0.0661687 0)
(7.16781 0.0601037 0)
(6.84658 0.055767 0)
(6.55149 0.0528135 0)
(6.27423 0.0509259 0)
(6.01018 0.0499408 0)
(5.75318 0.0497574 0)
(5.50008 0.0502087 0)
(5.24665 0.0512778 0)
(4.99005 0.0528293 0)
(4.72742 0.0548404 0)
(4.45625 0.0571997 0)
(4.1747 0.0598079 0)
(3.88113 0.0625399 0)
(3.57487 0.0652008 0)
(3.25607 0.0675599 0)
(2.92611 0.0693508 0)
(2.58778 0.0702638 0)
(2.24547 0.070146 0)
(1.90411 0.0685112 0)
(1.57266 0.0659819 0)
(1.29251 0.0622186 0)
(1.0724 0.0584603 0)
(0.862919 0.0534067 0)
(0.685108 0.0500306 0)
(0.502083 0.0434093 0)
(0.37908 0.0421923 0)
(0.201513 0.0327112 0)
(0.162348 0.0364037 0)
(-0.0617727 0.0206461 0)
(0.068228 0.0273439 0)
(-0.269477 -0.051199 0)
(0.403105 -0.069081 0)
(-0.0327475 -0.340468 0)
(1.93478 -0.176056 0)
(0.0814354 0.675331 0)
(10.0895 0.260364 0)
(10.3506 0.350127 0)
(10.4772 0.304719 0)
(10.518 0.272604 0)
(10.5308 0.243738 0)
(10.5113 0.217947 0)
(10.4536 0.198958 0)
(10.3528 0.183677 0)
(10.192 0.169226 0)
(9.9539 0.154119 0)
(9.64121 0.13823 0)
(9.2743 0.122254 0)
(8.88343 0.107748 0)
(8.49177 0.0953282 0)
(8.1119 0.0851556 0)
(7.74314 0.0772281 0)
(7.39227 0.0714009 0)
(7.06929 0.0673164 0)
(6.76622 0.0646185 0)
(6.47824 0.0630992 0)
(6.19899 0.0626079 0)
(5.9251 0.0629426 0)
(5.65189 0.0640739 0)
(5.37633 0.0658336 0)
(5.09517 0.0681887 0)
(4.80573 0.0710024 0)
(4.50584 0.0741588 0)
(4.19362 0.0774986 0)
(3.86816 0.0807858 0)
(3.52939 0.0837376 0)
(3.17852 0.0860238 0)
(2.81829 0.0872566 0)
(2.45314 0.0872296 0)
(2.08824 0.0853452 0)
(1.73284 0.0823249 0)
(1.43201 0.0777712 0)
(1.1946 0.0731611 0)
(0.969203 0.0669515 0)
(0.775896 0.062734 0)
(0.579982 0.0545708 0)
(0.443148 0.0529567 0)
(0.257133 0.0411478 0)
(0.204818 0.0457103 0)
(-0.0208245 0.0251744 0)
(0.0984586 0.0337497 0)
(-0.228651 -0.0615563 0)
(0.415495 -0.0815049 0)
(0.0139704 -0.39393 0)
(1.85749 -0.190476 0)
(0.0722418 0.768803 0)
(10.0781 0.236738 0)
(10.3152 0.331103 0)
(10.438 0.296435 0)
(10.4835 0.269065 0)
(10.5068 0.243221 0)
(10.5058 0.219778 0)
(10.4801 0.203012 0)
(10.4319 0.190437 0)
(10.3508 0.179718 0)
(10.2213 0.169215 0)
(10.0266 0.157743 0)
(9.75896 0.144717 0)
(9.43066 0.13112 0)
(9.06536 0.118047 0)
(8.68613 0.106379 0)
(8.30264 0.0967624 0)
(7.92998 0.0894019 0)
(7.58307 0.0840608 0)
(7.25662 0.0804284 0)
(6.94589 0.0782534 0)
(6.64534 0.0773604 0)
(6.35118 0.077515 0)
(6.05865 0.0786612 0)
(5.76463 0.0806089 0)
(5.46543 0.0833104 0)
(5.15827 0.0866032 0)
(4.84057 0.0903484 0)
(4.51033 0.0943534 0)
(4.16636 0.0983403 0)
(3.80835 0.101965 0)
(3.43727 0.104829 0)
(3.05579 0.106453 0)
(2.66833 0.106568 0)
(2.28025 0.104452 0)
(1.90104 0.10092 0)
(1.57947 0.0955188 0)
(1.32455 0.0899607 0)
(1.08294 0.0824818 0)
(0.873709 0.0772774 0)
(0.664521 0.0674367 0)
(0.513287 0.0652422 0)
(0.318573 0.0509587 0)
(0.25234 0.0561652 0)
(0.0256821 0.0305004 0)
(0.132209 0.0405688 0)
(-0.182903 -0.0717677 0)
(0.428308 -0.0948866 0)
(0.0598408 -0.446772 0)
(1.77543 -0.203295 0)
(0.0608204 0.863099 0)
(10.0675 0.214399 0)
(10.2834 0.312114 0)
(10.4023 0.287604 0)
(10.4505 0.264898 0)
(10.4793 0.241766 0)
(10.4871 0.220288 0)
(10.4765 0.205035 0)
(10.4521 0.19402 0)
(10.4098 0.185387 0)
(10.3418 0.177848 0)
(10.235 0.170337 0)
(10.0723 0.161631 0)
(9.84167 0.15145 0)
(9.5465 0.14013 0)
(9.20442 0.128594 0)
(8.83098 0.118126 0)
(8.45168 0.109558 0)
(8.08938 0.103032 0)
(7.74436 0.0984231 0)
(7.41371 0.0955239 0)
(7.09369 0.0941579 0)
(6.78026 0.0940657 0)
(6.4693 0.0951848 0)
(6.15737 0.0973018 0)
(5.84068 0.100348 0)
(5.51638 0.104144 0)
(5.18143 0.108522 0)
(4.83375 0.113254 0)
(4.47182 0.118014 0)
(4.09518 0.122402 0)
(3.70448 0.125936 0)
(3.30228 0.128036 0)
(2.89292 0.128358 0)
(2.48191 0.126043 0)
(2.07888 0.121989 0)
(1.73638 0.115691 0)
(1.46364 0.109089 0)
(1.20539 0.100227 0)
(0.979703 0.0938785 0)
(0.756702 0.0822217 0)
(0.590406 0.079234 0)
(0.386536 0.0623343 0)
(0.305605 0.0678869 0)
(0.0780282 0.036795 0)
(0.169758 0.0478274 0)
(-0.132259 -0.0816028 0)
(0.442175 -0.109091 0)
(0.104535 -0.498408 0)
(1.69007 -0.214359 0)
(0.0480534 0.957758 0)
(10.0578 0.193269 0)
(10.2544 0.293226 0)
(10.3694 0.278282 0)
(10.4196 0.260207 0)
(10.4518 0.239682 0)
(10.4643 0.220045 0)
(10.4616 0.20603 0)
(10.4488 0.196082 0)
(10.4248 0.188663 0)
(10.3863 0.182764 0)
(10.327 0.177677 0)
(10.2357 0.172395 0)
(10.0966 0.166262 0)
(9.89505 0.158642 0)
(9.62815 0.149519 0)
(9.3005 0.139937 0)
(8.94022 0.131159 0)
(8.57834 0.123919 0)
(8.2241 0.118516 0)
(7.87928 0.114937 0)
(7.54318 0.11308 0)
(7.21268 0.112717 0)
(6.88482 0.113783 0)
(6.55594 0.116052 0)
(6.22261 0.119449 0)
(5.88174 0.123772 0)
(5.53024 0.128831 0)
(5.16575 0.134359 0)
(4.78645 0.139976 0)
(4.39171 0.145223 0)
(3.98191 0.149527 0)
(3.55945 0.152205 0)
(3.12853 0.152816 0)
(2.69476 0.15035 0)
(2.26783 0.14578 0)
(1.90414 0.138544 0)
(1.61318 0.130805 0)
(1.33779 0.120448 0)
(1.09502 0.112787 0)
(0.857542 0.0991723 0)
(0.675445 0.095149 0)
(0.461789 0.0754942 0)
(0.365357 0.0810247 0)
(0.136621 0.0442629 0)
(0.211658 0.0555894 0)
(-0.0768018 -0.0908219 0)
(0.457652 -0.123927 0)
(0.147888 -0.548251 0)
(1.60255 -0.223507 0)
(0.0346331 1.05226 0)
(10.0492 0.173344 0)
(10.2275 0.274494 0)
(10.3386 0.26848 0)
(10.3905 0.255023 0)
(10.425 0.237106 0)
(10.4406 0.21929 0)
(10.4427 0.206418 0)
(10.4363 0.19734 0)
(10.4215 0.190764 0)
(10.3974 0.185864 0)
(10.3609 0.182141 0)
(10.3068 0.178883 0)
(10.2257 0.175701 0)
(10.1032 0.171827 0)
(9.92444 0.166557 0)
(9.67478 0.15992 0)
(9.36729 0.152695 0)
(9.0311 0.145875 0)
(8.68417 0.140284 0)
(8.33566 0.136317 0)
(7.98997 0.134099 0)
(7.64666 0.13352 0)
(7.30452 0.134546 0)
(6.96055 0.136986 0)
(6.61193 0.140755 0)
(6.25542 0.145635 0)
(5.8882 0.151431 0)
(5.50757 0.157827 0)
(5.11171 0.164401 0)
(4.69943 0.170614 0)
(4.27109 0.175809 0)
(3.82877 0.179175 0)
(3.37659 0.180177 0)
(2.92022 0.177629 0)
(2.46927 0.172564 0)
(2.08406 0.164366 0)
(1.77445 0.1554 0)
(1.48134 0.143438 0)
(1.22081 0.134287 0)
(0.968094 0.11857 0)
(0.76939 0.113239 0)
(0.545171 0.0906907 0)
(0.432402 0.0957616 0)
(0.201972 0.0531404 0)
(0.258614 0.063959 0)
(-0.0165759 -0.0991498 0)
(0.475268 -0.139153 0)
(0.189823 -0.59564 0)
(1.51375 -0.230576 0)
(0.0211376 1.14601 0)
(10.0414 0.154644 0)
(10.2023 0.255976 0)
(10.3095 0.2582 0)
(10.3629 0.24934 0)
(10.399 0.234091 0)
(10.417 0.21813 0)
(10.4223 0.206389 0)
(10.4199 0.19811 0)
(10.4105 0.192226 0)
(10.3939 0.188052 0)
(10.3688 0.185197 0)
(10.3329 0.183123 0)
(10.2813 0.181669 0)
(10.2062 0.180361 0)
(10.0953 0.178578 0)
(9.92857 0.175838 0)
(9.69912 0.171937 0)
(9.4188 0.167269 0)
(9.10406 0.162725 0)
(8.76938 0.159111 0)
(8.42561 0.156944 0)
(8.07708 0.156371 0)
(7.72555 0.157483 0)
(7.36985 0.160171 0)
(7.00813 0.164368 0)
(6.63767 0.169873 0)
(6.25591 0.176474 0)
(5.86006 0.18382 0)
(5.44845 0.191461 0)
(5.01949 0.198771 0)
(4.57325 0.204991 0)
(4.11158 0.209183 0)
(3.63842 0.210692 0)
(3.15958 0.208158 0)
(2.6845 0.202645 0)
(2.27744 0.193471 0)
(1.94872 0.183198 0)
(1.63728 0.169526 0)
(1.35825 0.158699 0)
(1.08946 0.140733 0)
(0.873285 0.133795 0)
(0.63759 0.108213 0)
(0.507611 0.112318 0)
(0.274689 0.0636976 0)
(0.311368 0.0730818 0)
(0.0485062 -0.106259 0)
(0.495542 -0.15446 0)
(0.230331 -0.639837 0)
(1.42435 -0.2354 0)
(0.00809872 1.23841 0)
(10.0346 0.137202 0)
(10.1786 0.23775 0)
(10.2816 0.247453 0)
(10.3363 0.243145 0)
(10.3738 0.230652 0)
(10.3938 0.21661 0)
(10.4015 0.206032 0)
(10.4018 0.198543 0)
(10.3959 0.193298 0)
(10.3838 0.189736 0)
(10.365 0.187534 0)
(10.3384 0.186259 0)
(10.3014 0.185858 0)
(10.2504 0.186067 0)
(10.1784 0.186594 0)
(10.0715 0.1871 0)
(9.91742 0.187021 0)
(9.71097 0.185928 0)
(9.45483 0.184074 0)
(9.15837 0.182139 0)
(8.83491 0.180909 0)
(8.49394 0.180885 0)
(8.14163 0.182414 0)
(7.77999 0.185555 0)
(7.40912 0.190327 0)
(7.02748 0.196572 0)
(6.63308 0.204085 0)
(6.22358 0.212504 0)
(5.79717 0.221323 0)
(5.35253 0.229878 0)
(4.8893 0.237293 0)
(4.40902 0.242474 0)
(3.91528 0.244643 0)
(3.41411 0.242231 0)
(2.91477 0.236347 0)
(2.48555 0.226207 0)
(2.13727 0.214556 0)
(1.80686 0.199077 0)
(1.50859 0.186387 0)
(1.2228 0.166023 0)
(0.988241 0.157149 0)
(0.740038 0.128391 0)
(0.591931 0.130959 0)
(0.355474 0.0762457 0)
(0.370714 0.0831591 0)
(0.11865 -0.111764 0)
(0.518996 -0.169468 0)
(0.269495 -0.680059 0)
(1.33492 -0.237804 0)
(-0.00396067 1.32898 0)
(10.0286 0.12106 0)
(10.1563 0.219907 0)
(10.2548 0.236268 0)
(10.3105 0.236419 0)
(10.3492 0.226784 0)
(10.3709 0.214741 0)
(10.3807 0.205384 0)
(10.3831 0.19871 0)
(10.3796 0.194099 0)
(10.3704 0.191108 0)
(10.3555 0.189471 0)
(10.3342 0.188826 0)
(10.3051 0.189174 0)
(10.2662 0.190356 0)
(10.2139 0.192288 0)
(10.1405 0.194896 0)
(10.0376 0.197806 0)
(9.89703 0.200385 0)
(9.7103 0.202276 0)
(9.4742 0.203527 0)
(9.19443 0.204623 0)
(8.88027 0.20618 0)
(8.54122 0.208816 0)
(8.18346 0.212862 0)
(7.81018 0.218515 0)
(7.42204 0.225723 0)
(7.01831 0.234334 0)
(6.59752 0.243991 0)
(6.15799 0.254157 0)
(5.69888 0.264121 0)
(5.21969 0.272909 0)
(4.72189 0.279304 0)
(4.20821 0.282307 0)
(3.68507 0.280182 0)
(3.16133 0.27402 0)
(2.70966 0.262954 0)
(2.34138 0.24987 0)
(1.99138 0.232497 0)
(1.67309 0.217754 0)
(1.36935 0.194845 0)
(1.11544 0.183683 0)
(0.853589 0.151603 0)
(0.686387 0.151997 0)
(0.445121 0.0911429 0)
(0.437504 0.0944568 0)
(0.19418 -0.115215 0)
(0.546171 -0.183709 0)
(0.3075 -0.71543 0)
(1.24599 -0.237601 0)
(-0.0145735 1.41672 0)
(10.0233 0.106259 0)
(10.1355 0.202554 0)
(10.229 0.224696 0)
(10.2853 0.229151 0)
(10.325 0.222471 0)
(10.3483 0.212518 0)
(10.3599 0.204458 0)
(10.3641 0.198645 0)
(10.3624 0.19469 0)
(10.3555 0.192268 0)
(10.3431 0.191164 0)
(10.3252 0.191079 0)
(10.3007 0.192039 0)
(10.2685 0.193953 0)
(10.2264 0.196829 0)
(10.1701 0.200761 0)
(10.0953 0.205605 0)
(9.99735 0.210912 0)
(9.86749 0.21629 0)
(9.6959 0.221396 0)
(9.47714 0.226131 0)
(9.21165 0.230687 0)
(8.9057 0.235607 0)
(8.56718 0.241411 0)
(8.20257 0.248538 0)
(7.81574 0.257132 0)
(7.40816 0.26716 0)
(6.97994 0.278321 0)
(6.53016 0.290081 0)
(6.05849 0.301672 0)
(5.56466 0.312049 0)
(5.05039 0.319878 0)
(4.51802 0.323982 0)
(3.97354 0.322351 0)
(3.42549 0.316052 0)
(2.95104 0.304114 0)
(2.56238 0.289568 0)
(2.19218 0.270234 0)
(1.8531 0.253253 0)
(1.5304 0.227655 0)
(1.25616 0.21383 0)
(0.979407 0.178275 0)
(0.792088 0.175803 0)
(0.544523 0.108802 0)
(0.512659 0.107316 0)
(0.275548 -0.116085 0)
(0.57764 -0.19661 0)
(0.344656 -0.744989 0)
(1.15823 -0.234582 0)
(-0.0232512 1.50086 0)
(10.0188 0.092828 0)
(10.1162 0.185805 0)
(10.2042 0.212814 0)
(10.2606 0.221345 0)
(10.3012 0.217697 0)
(10.3259 0.209925 0)
(10.3391 0.20325 0)
(10.3449 0.198362 0)
(10.3448 0.195101 0)
(10.3395 0.193265 0)
(10.3292 0.192695 0)
(10.3135 0.193147 0)
(10.292 0.194663 0)
(10.2638 0.197199 0)
(10.2275 0.200814 0)
(10.1804 0.205689 0)
(10.1201 0.211801 0)
(10.0452 0.218872 0)
(9.95048 0.226748 0)
(9.82788 0.235169 0)
(9.66818 0.243819 0)
(9.46342 0.252428 0)
(9.2102 0.261026 0)
(8.91099 0.269895 0)
(8.57172 0.279527 0)
(8.19867 0.290268 0)
(7.79618 0.302274 0)
(7.36686 0.315379 0)
(6.91136 0.329097 0)
(6.43035 0.342644 0)
(5.92416 0.354908 0)
(5.39469 0.364425 0)
(4.84493 0.369918 0)
(4.2802 0.369062 0)
(3.70849 0.362856 0)
(3.21105 0.350135 0)
(2.80157 0.334118 0)
(2.41062 0.312775 0)
(2.05001 0.293387 0)
(1.70733 0.264962 0)
(1.41173 0.248083 0)
(1.11875 0.208896 0)
(0.910232 0.202813 0)
(0.654673 0.129695 0)
(0.597175 0.122161 0)
(0.363356 -0.113761 0)
(0.614036 -0.207472 0)
(0.381444 -0.767707 0)
(1.07241 -0.228503 0)
(-0.0294622 1.58053 0)
(10.0149 0.0807776 0)
(10.0986 0.169774 0)
(10.1805 0.200725 0)
(10.2364 0.213026 0)
(10.2775 0.212447 0)
(10.3036 0.206943 0)
(10.3183 0.201747 0)
(10.3256 0.197857 0)
(10.3269 0.195344 0)
(10.323 0.194128 0)
(10.3142 0.19411 0)
(10.3003 0.195101 0)
(10.2809 0.197158 0)
(10.2553 0.200271 0)
(10.2227 0.204532 0)
(10.1808 0.21018 0)
(10.1285 0.217237 0)
(10.0658 0.225512 0)
(9.98988 0.235035 0)
(9.89637 0.24577 0)
(9.77848 0.257565 0)
(9.6273 0.270123 0)
(9.43345 0.28314 0)
(9.19025 0.29638 0)
(8.89617 0.309932 0)
(8.55474 0.324044 0)
(8.17132 0.338986 0)
(7.75105 0.354766 0)
(7.29711 0.371023 0)
(6.81189 0.387012 0)
(6.297 0.401591 0)
(5.75485 0.413187 0)
(5.18895 0.420345 0)
(4.60536 0.420631 0)
(4.01116 0.41482 0)
(3.49112 0.401515 0)
(3.06035 0.384023 0)
(2.64812 0.360657 0)
(2.26524 0.338714 0)
(1.90157 0.307331 0)
(1.5836 0.286998 0)
(1.27296 0.244016 0)
(1.04212 0.23354 0)
(0.776669 0.154368 0)
(0.692131 0.139518 0)
(0.458354 -0.107528 0)
(0.65608 -0.215465 0)
(0.418556 -0.782483 0)
(0.989476 -0.21908 0)
(-0.032615 1.65481 0)
(10.0117 0.0700911 0)
(10.0828 0.154572 0)
(10.158 0.188558 0)
(10.2128 0.204247 0)
(10.2541 0.206719 0)
(10.2813 0.203552 0)
(10.2975 0.199931 0)
(10.3061 0.197123 0)
(10.3087 0.195419 0)
(10.3061 0.194867 0)
(10.2986 0.195431 0)
(10.2861 0.196979 0)
(10.2683 0.199584 0)
(10.2446 0.203266 0)
(10.2145 0.208137 0)
(10.1759 0.21448 0)
(10.1284 0.22234 0)
(10.0724 0.231557 0)
(10.0066 0.242255 0)
(9.92872 0.254547 0)
(9.83495 0.268516 0)
(9.71943 0.284083 0)
(9.5738 0.301064 0)
(9.38792 0.319056 0)
(9.15225 0.337679 0)
(8.86158 0.356656 0)
(8.51612 0.375964 0)
(8.12036 0.395603 0)
(7.67948 0.415341 0)
(7.19827 0.434523 0)
(6.68042 0.452045 0)
(6.12965 0.466263 0)
(5.55023 0.475565 0)
(4.94907 0.477323 0)
(4.33386 0.472305 0)
(3.79226 0.458729 0)
(3.34028 0.439869 0)
(2.90615 0.414459 0)
(2.50028 0.389844 0)
(2.11465 0.355388 0)
(1.77327 0.331202 0)
(1.4435 0.284258 0)
(1.18913 0.26858 0)
(0.911723 0.183441 0)
(0.798701 0.160023 0)
(0.56144 -0.0965626 0)
(0.704624 -0.219599 0)
(0.45691 -0.788135 0)
(0.910566 -0.205971 0)
(-0.0320536 1.72269 0)
(10.0091 0.0607239 0)
(10.0688 0.140297 0)
(10.137 0.176457 0)
(10.1899 0.195086 0)
(10.231 0.200528 0)
(10.2591 0.199742 0)
(10.2766 0.197783 0)
(10.2865 0.196145 0)
(10.2903 0.195321 0)
(10.2888 0.195485 0)
(10.2824 0.196671 0)
(10.2711 0.198806 0)
(10.2546 0.201978 0)
(10.2325 0.206238 0)
(10.2041 0.211714 0)
(10.1679 0.218726 0)
(10.1235 0.227329 0)
(10.0716 0.237371 0)
(10.0117 0.249025 0)
(9.94228 0.262479 0)
(9.8615 0.277956 0)
(9.76612 0.2956 0)
(9.65103 0.315487 0)
(9.50841 0.337461 0)
(9.32764 0.361152 0)
(9.09709 0.385922 0)
(8.80762 0.411135 0)
(8.45614 0.436284 0)
(8.04533 0.460958 0)
(7.58099 0.484525 0)
(7.06932 0.505949 0)
(6.51628 0.523583 0)
(5.92771 0.535704 0)
(5.31146 0.539463 0)
(4.67657 0.535628 0)
(4.11482 0.522186 0)
(3.64247 0.502201 0)
(3.18634 0.474846 0)
(2.75662 0.44744 0)
(2.34813 0.409821 0)
(1.98233 0.381401 0)
(1.6319 0.330321 0)
(1.35277 0.308625 0)
(1.06116 0.217626 0)
(0.918163 0.18444 0)
(0.673668 -0.0799267 0)
(0.76069 -0.218721 0)
(0.49768 -0.783411 0)
(0.83706 -0.18875 0)
(-0.0270759 1.78319 0)
(10.0069 0.0526038 0)
(10.0566 0.127026 0)
(10.1177 0.164577 0)
(10.1679 0.185655 0)
(10.2083 0.193911 0)
(10.2371 0.19551 0)
(10.2557 0.195289 0)
(10.2667 0.194906 0)
(10.2717 0.195038 0)
(10.2713 0.195978 0)
(10.2659 0.197835 0)
(10.2557 0.200592 0)
(10.2403 0.204362 0)
(10.2194 0.209222 0)
(10.1924 0.215317 0)
(10.1579 0.222998 0)
(10.1157 0.232325 0)
(10.0666 0.243145 0)
(10.0103 0.255659 0)
(9.94592 0.270095 0)
(9.87242 0.286746 0)
(9.78802 0.305878 0)
(9.68996 0.327787 0)
(9.57368 0.352604 0)
(9.43188 0.380317 0)
(9.25373 0.410476 0)
(9.02576 0.442251 0)
(8.73513 0.474463 0)
(8.37497 0.505966 0)
(7.94607 0.535698 0)
(7.4548 0.56251 0)
(6.90951 0.584764 0)
(6.31864 0.600688 0)
(5.69189 0.607263 0)
(5.03947 0.60515 0)
(4.45881 0.592251 0)
(3.9674 0.57151 0)
(3.48998 0.542479 0)
(3.03601 0.51225 0)
(2.60366 0.471378 0)
(2.21242 0.438386 0)
(1.83981 0.38299 0)
(1.53464 0.354475 0)
(1.22643 0.257734 0)
(1.05191 0.213676 0)
(0.796255 -0.0565566 0)
(0.825518 -0.211494 0)
(0.542333 -0.766991 0)
(0.770642 -0.166871 0)
(-0.0169887 1.83543 0)
(10.0052 0.045636 0)
(10.0461 0.11481 0)
(10.1001 0.153062 0)
(10.1472 0.176086 0)
(10.1863 0.186931 0)
(10.2152 0.190875 0)
(10.2347 0.192442 0)
(10.2468 0.193395 0)
(10.2528 0.194559 0)
(10.2534 0.19634 0)
(10.2491 0.19892 0)
(10.2398 0.202344 0)
(10.2254 0.206749 0)
(10.2056 0.212239 0)
(10.1798 0.218978 0)
(10.1466 0.227345 0)
(10.106 0.237402 0)
(10.0589 0.24899 0)
(10.0051 0.262328 0)
(9.94396 0.277669 0)
(9.87488 0.295344 0)
(9.7968 0.315677 0)
(9.70818 0.339084 0)
(9.60654 0.3659 0)
(9.48779 0.39644 0)
(9.34502 0.430688 0)
(9.16736 0.468225 0)
(8.93943 0.507835 0)
(8.64507 0.547728 0)
(8.273 0.585799 0)
(7.82229 0.62016 0)
(7.30023 0.648881 0)
(6.71784 0.670079 0)
(6.08781 0.680666 0)
(5.42224 0.681185 0)
(4.82449 0.669359 0)
(4.31509 0.648208 0)
(3.81761 0.617932 0)
(3.34002 0.585068 0)
(2.8831 0.54091 0)
(2.46521 0.503026 0)
(2.06896 0.443133 0)
(1.73644 0.407047 0)
(1.40911 0.304687 0)
(1.20147 0.248798 0)
(0.930601 -0.0252641 0)
(0.900606 -0.19639 0)
(0.592664 -0.737502 0)
(0.713365 -0.139625 0)
(-0.00116618 1.87861 0)
(10.0039 0.0397092 0)
(10.0373 0.103671 0)
(10.0845 0.142045 0)
(10.1278 0.166526 0)
(10.1651 0.179678 0)
(10.1938 0.185875 0)
(10.2138 0.18925 0)
(10.2268 0.191605 0)
(10.2338 0.193874 0)
(10.2353 0.196562 0)
(10.2319 0.199925 0)
(10.2235 0.204064 0)
(10.21 0.209147 0)
(10.1911 0.215304 0)
(10.1663 0.222719 0)
(10.1344 0.2318 0)
(10.0951 0.24261 0)
(10.0495 0.254976 0)
(9.99746 0.269134 0)
(9.93862 0.285353 0)
(9.87247 0.303988 0)
(9.79835 0.3254 0)
(9.71531 0.350052 0)
(9.62195 0.378396 0)
(9.51605 0.410948 0)
(9.39384 0.448039 0)
(9.24879 0.489792 0)
(9.06965 0.535599 0)
(8.83961 0.58388 0)
(8.53833 0.631861 0)
(8.15058 0.67631 0)
(7.67354 0.714113 0)
(7.11624 0.742835 0)
(6.49432 0.759228 0)
(5.82282 0.763733 0)
(5.21176 0.75387 0)
(4.68578 0.732789 0)
(4.1692 0.701686 0)
(3.66949 0.666583 0)
(3.18824 0.61936 0)
(2.74256 0.576272 0)
(2.32118 0.51172 0)
(1.95996 0.467402 0)
(1.61088 0.359531 0)
(1.36849 0.291052 0)
(1.07831 0.01525 0)
(0.98775 -0.171684 0)
(0.650834 -0.693524 0)
(0.667721 -0.106071 0)
(0.0210054 1.91226 0)
(10.0029 0.0347034 0)
(10.03 0.0936032 0)
(10.0708 0.13163 0)
(10.1101 0.157125 0)
(10.145 0.172265 0)
(10.173 0.180571 0)
(10.1933 0.185737 0)
(10.2069 0.189539 0)
(10.2146 0.192978 0)
(10.217 0.196639 0)
(10.2144 0.200843 0)
(10.2069 0.205752 0)
(10.1943 0.21156 0)
(10.1762 0.218428 0)
(10.1523 0.226559 0)
(10.1213 0.236389 0)
(10.0832 0.247982 0)
(10.0388 0.261153 0)
(9.98824 0.276146 0)
(9.9311 0.293246 0)
(9.86705 0.312822 0)
(9.79563 0.335258 0)
(9.7162 0.36105 0)
(9.62789 0.390697 0)
(9.52942 0.424823 0)
(9.41877 0.463962 0)
(9.29244 0.508618 0)
(9.14402 0.558823 0)
(8.96205 0.613851 0)
(8.72751 0.671448 0)
(8.41596 0.72762 0)
(8.00776 0.777473 0)
(7.49885 0.816903 0)
(6.90265 0.84185 0)
(6.23676 0.852346 0)
(5.61888 0.84586 0)
(5.07958 0.825745 0)
(4.5449 0.79426 0)
(4.0243 0.757351 0)
(3.51999 0.707508 0)
(3.04661 0.65924 0)
(2.59853 0.589839 0)
(2.20702 0.536731 0)
(1.83355 0.42344 0)
(1.55478 0.341873 0)
(1.24122 0.0663916 0)
(1.08906 -0.135461 0)
(0.719399 -0.633604 0)
(0.636674 -0.0649694 0)
(0.0502742 1.93631 0)
(10.0022 0.0304973 0)
(10.0241 0.0845767 0)
(10.0589 0.12189 0)
(10.0941 0.148016 0)
(10.1264 0.164815 0)
(10.1531 0.175049 0)
(10.1732 0.181948 0)
(10.1871 0.187216 0)
(10.1955 0.191874 0)
(10.1986 0.196568 0)
(10.1968 0.201675 0)
(10.19 0.207408 0)
(10.1781 0.213992 0)
(10.1609 0.221618 0)
(10.1378 0.230508 0)
(10.1077 0.24113 0)
(10.0705 0.253545 0)
(10.0273 0.267554 0)
(9.97785 0.283411 0)
(9.92207 0.301412 0)
(9.85964 0.321936 0)
(9.79021 0.345385 0)
(9.71332 0.372272 0)
(9.62838 0.403129 0)
(9.53459 0.438621 0)
(9.43079 0.479391 0)
(9.31512 0.526154 0)
(9.18425 0.579347 0)
(9.03187 0.639058 0)
(8.84571 0.70412 0)
(8.60439 0.771404 0)
(8.27875 0.835268 0)
(7.84368 0.888939 0)
(7.29809 0.926226 0)
(6.65589 0.94586 0)
(6.04175 0.9449 0)
(5.49472 0.927168 0)
(4.94519 0.896315 0)
(4.40447 0.85793 0)
(3.87833 0.806026 0)
(3.37883 0.75298 0)
(2.90328 0.678734 0)
(2.47958 0.616375 0)
(2.07909 0.497731 0)
(1.76229 0.40289 0)
(1.4214 0.129689 0)
(1.207 -0.0856451 0)
(0.801328 -0.556282 0)
(0.62369 -0.0146974 0)
(0.087657 1.95099 0)
(10.0017 0.0269738 0)
(10.0192 0.0765414 0)