/*--------------------------------*- C++ -*----------------------------------*\
  =========                 |
  \\      /  F ield         | OpenFOAM: The Open Source CFD Toolbox
   \\    /   O peration     | Website:  https://openfoam.org
    \\  /    A nd           | Version:  13
     \\/     M anipulation  |
\*---------------------------------------------------------------------------*/
FoamFile
{
    format      ascii;
    class       volScalarField;
    location    "753";
    object      yPlus;
}
// * * * * * * * * * * * * * * * * * * * * * * * * * * * * * * * * * * * * * //

dimensions      [];

internalField   uniform 0;

boundaryField
{
    inlet1
    {
        type            calculated;
        value           uniform 0;
    }
    inlet2
    {
        type            calculated;
        value           uniform 0;
    }
    outlet
    {
        type            calculated;
        value           uniform 0;
    }
    lowerWall
    {
        type            calculated;
        value           nonuniform List<scalar> 
250
(
0.148259
0.0955073
0.0942598
0.10101
0.105334
0.11939
0.123673
0.133895
0.136168
0.141719
0.142719
0.144734
0.145436
0.145677
0.145377
0.14456
0.143279
0.141662
0.139711
0.137598
0.135173
0.132577
0.129708
0.126608
0.123282
0.119673
0.115846
0.111736
0.107385
0.102783
0.0979607
0.0929657
0.0878265
0.0826633
0.0774577
0.0730147
0.0693013
0.0658771
0.0624152
0.0594719
0.0561749
0.0537496
0.0503572
0.0484407
0.0459454
0.0507397
0.0557491
0.0839752
0.0891012
0.116245
0.0763623
0.0688296
0.0538256
0.0496088
0.0472607
0.0468318
0.0463509
0.0464959
0.0470255
0.047492
0.0482169
0.0489576
0.0498122
0.0507078
0.0516693
0.052673
0.0537247
0.0548156
0.0559465
0.0571138
0.0583171
0.0595545
0.0608254
0.0621288
0.0634642
0.0648308
0.0662283
0.0676559
0.0691133
0.0705998
0.0721149
0.073658
0.0752281
0.0768246
0.0784462
0.0800922
0.0817611
0.083452
0.0851631
0.0868936
0.0886415
0.0904056
0.0921842
0.0939757
0.0957785
0.0975911
0.0994115
0.101238
0.10307
0.104904
0.10674
0.108575
0.110409
0.112238
0.114062
0.115879
0.117687
0.119485
0.121271
0.123042
0.124861
0.126709
0.128513
0.130274
0.13199
0.133662
0.135289
0.136871
0.138407
0.139899
0.141346
0.142748
0.144106
0.145419
0.146688
0.147914
0.149096
0.150234
0.15133
0.152384
0.153396
0.154367
0.155297
0.156188
0.157038
0.15785
0.158624
0.159359
0.160058
0.160721
0.161348
0.161941
0.162499
0.163024
0.163517
0.163977
0.164407
0.164807
0.165177
0.165519
0.165834
0.166121
0.166382
0.166618
0.16683
0.167018
0.167183
0.167326
0.167448
0.167549
0.167631
0.167694
0.167739
0.167766
0.167777
0.167772
0.167751
0.167715
0.167669
0.167608
0.167535
0.167451
0.167356
0.16725
0.167135
0.16701
0.166877
0.166737
0.166588
0.166434
0.166272
0.166105
0.165932
0.165755
0.165572
0.165386
0.165196
0.165002
0.164805
0.164605
0.164428
0.164276
0.164124
0.163972
0.163819
0.163667
0.163515
0.163364
0.163213
0.163062
0.162912
0.162763
0.162614
0.162466
0.162319
0.162173
0.162028
0.161885
0.161742
0.161601
0.16146
0.161322
0.161185
0.161049
0.160915
0.160783
0.160652
0.160524
0.160397
0.160272
0.160149
0.160029
0.15991
0.159794
0.159681
0.15957
0.159462
0.159357
0.159255
0.159157
0.159062
0.158971
0.158885
0.158803
0.158727
0.158657
0.158594
0.15854
0.158494
0.15846
0.15844
0.158438
0.158454
0.158509
0.158567
0.158762
0.15886
0.159399
0.159627
0.161434
)
;
    }
    frontAndBack
    {
        type            empty;
    }
}


// ************************************************************************* //
